% Model:              lid_driven_cavity.mph
% Version:            COMSOL 4.3.2.152
% Date:               Jun 8 2013, 13:01
% Table:              Nonlinear solver - 
% Iteration number       Error
1                        1.7999660126629677
2                        1.5822118794990458
3                        0.6401027434674033
4                        1.1226959462265498
5                        0.38623284636932775
6                        0.14129451513361177
7                        0.04702389128158033
