% Model:              lid_driven_cavity.mph
% Version:            COMSOL 4.3.2.152
% Date:               Jun 9 2013, 19:18
% Dimension:          2
% Nodes:              40000
% Expressions:        1
% Description:        Velocity field, x component
% Length unit:        m
% x                       y                        p (Pa)
0.0025                    0.0025                   6.608051084308447E-4
0.0075                    0.0025                   6.669643838595426E-4
0.0125                    0.0025                   6.730558927047258E-4
0.0175                    0.0025                   6.806001328412611E-4
0.0225                    0.0025                   6.899906739983575E-4
0.0275                    0.0025                   6.995500417810583E-4
0.0325                    0.0025                   6.964654405513177E-4
0.0375                    0.0025                   6.929497772768E-4
0.0425                    0.0025                   6.848915845402296E-4
0.0475                    0.0025                   6.71105546835175E-4
0.0525                    0.0025                   6.573261814091176E-4
0.0575                    0.0025                   6.329563717226034E-4
0.0625                    0.0025                   6.073885412189944E-4
0.0675                    0.0025                   5.782965171637073E-4
0.0725                    0.0025                   5.426041877184965E-4
0.0775                    0.0025                   5.069126812059526E-4
0.0825                    0.0025                   4.6377127458098374E-4
0.0875                    0.0025                   4.186620634046554E-4
0.0925                    0.0025                   3.7189196388200634E-4
0.0975                    0.0025                   3.194706680412954E-4
0.1025                    0.0025                   2.670458101278455E-4
0.1075                    0.0025                   2.111513294154854E-4
0.1125                    0.0025                   1.5344086811561856E-4
0.1175                    0.0025                   9.525360867477668E-5
0.1225                    0.0025                   3.160815018412162E-5
0.1275                    0.0025                   -3.20382437561959E-5
0.1325                    0.0025                   -9.816648848296098E-5
0.1375                    0.0025                   -1.6679456186211337E-4
0.1425                    0.0025                   -2.354230981481751E-4
0.1475                    0.0025                   -3.103058873567413E-4
0.1525                    0.0025                   -3.8579409157901365E-4
0.1575                    0.0025                   -4.6167793530202855E-4
0.1625                    0.0025                   -5.383958657824742E-4
0.1675                    0.0025                   -6.151141953222634E-4
0.1725                    0.0025                   -7.001415893032245E-4
0.1775                    0.0025                   -7.8826071506296E-4
0.1825                    0.0025                   -8.768639524848608E-4
0.1875                    0.0025                   -9.685916204714513E-4
0.1925                    0.0025                   -0.0010603199013135233
0.1975                    0.0025                   -0.0011548646178126134
0.2025                    0.0025                   -0.0012518284388566702
0.2075                    0.0025                   -0.0013487932148283173
0.2125                    0.0025                   -0.0014561432613644642
0.2175                    0.0025                   -0.0015641424218424118
0.2225                    0.0025                   -0.0016742239632287384
0.2275                    0.0025                   -0.001788275048768907
0.2325                    0.0025                   -0.0019023259729058495
0.2375                    0.0025                   -0.0020184070058536733
0.2425                    0.0025                   -0.0021351751339863346
0.2475                    0.0025                   -0.002253357655287944
0.2525                    0.0025                   -0.002379604630703458
0.2575                    0.0025                   -0.0025058501808739916
0.2625                    0.0025                   -0.002635054847435795
0.2675                    0.0025                   -0.002766662109907095
0.2725                    0.0025                   -0.0028982689158045306
0.2775                    0.0025                   -0.00303467656919384
0.2825                    0.0025                   -0.003171312979924068
0.2875                    0.0025                   -0.0033095717405725237
0.2925                    0.0025                   -0.0034507509075226003
0.2975                    0.0025                   -0.0035919306334289917
0.3025                    0.0025                   -0.003730625471973165
0.3075                    0.0025                   -0.0038685345242626176
0.3125                    0.0025                   -0.004005857372719409
0.3175                    0.0025                   -0.0041401545919323894
0.3225                    0.0025                   -0.004274451723582836
0.3275                    0.0025                   -0.004408261506205464
0.3325                    0.0025                   -0.004541695281595131
0.3375                    0.0025                   -0.0046751281088732305
0.3425                    0.0025                   -0.004798913717370303
0.3475                    0.0025                   -0.004922375057710913
0.3525                    0.0025                   -0.005043288949812456
0.3575                    0.0025                   -0.005159868504106333
0.3625                    0.0025                   -0.005276448077833122
0.3675                    0.0025                   -0.0053794578820511845
0.3725                    0.0025                   -0.005478476617544945
0.3775                    0.0025                   -0.0055742349506986795
0.3825                    0.0025                   -0.005654657105228277
0.3875                    0.0025                   -0.005735079242416591
0.3925                    0.0025                   -0.005805559323155435
0.3975                    0.0025                   -0.005868778709398352
0.4025                    0.0025                   -0.005931998535890193
0.4075                    0.0025                   -0.005963874022184909
0.4125                    0.0025                   -0.005995127499909888
0.4175                    0.0025                   -0.006018328895038341
0.4225                    0.0025                   -0.006028563935484323
0.4275                    0.0025                   -0.006038798701949596
0.4325                    0.0025                   -0.006018465669860745
0.4375                    0.0025                   -0.005989795378097606
0.4425                    0.0025                   -0.005956259164743166
0.4475                    0.0025                   -0.005901751711325014
0.4525                    0.0025                   -0.005847243706503795
0.4575                    0.0025                   -0.005772640746405947
0.4625                    0.0025                   -0.005684125914626205
0.4675                    0.0025                   -0.00559561072032826
0.4725                    0.0025                   -0.005475975262630914
0.4775                    0.0025                   -0.00535613517685699
0.4825                    0.0025                   -0.005222863219814675
0.4875                    0.0025                   -0.005069113007252411
0.4925                    0.0025                   -0.004915360155957253
0.4975                    0.0025                   -0.004743018404880558
0.5025                    0.0025                   -0.004565989187471836
0.5075                    0.0025                   -0.004382902128326121
0.5125                    0.0025                   -0.004175790695766502
0.5175                    0.0025                   -0.003968678254455868
0.5225                    0.0025                   -0.003756558527035524
0.5275                    0.0025                   -0.0035411564939976698
0.5325                    0.0025                   -0.0033256470093242637
0.5375                    0.0025                   -0.003093436701864963
0.5425                    0.0025                   -0.0028612311677877504
0.5475                    0.0025                   -0.002633193255438907
0.5525                    0.0025                   -0.0024111734749357357
0.5575                    0.0025                   -0.00218915947266893
0.5625                    0.0025                   -0.001956773521496217
0.5675                    0.0025                   -0.00172198279145403
0.5725                    0.0025                   -0.0014960149091489613
0.5775                    0.0025                   -0.001302383564408959
0.5825                    0.0025                   -0.001108750623895106
0.5875                    0.0025                   -9.130552861777751E-4
0.5925                    0.0025                   -7.160794191450247E-4
0.5975                    0.0025                   -5.202100288630052E-4
0.6025                    0.0025                   -3.798829099939848E-4
0.6075                    0.0025                   -2.3956073041621264E-4
0.6125                    0.0025                   -1.1042881715468778E-4
0.6175                    0.0025                   3.3907832960601548E-6
0.6225                    0.0025                   1.17208051601713E-4
0.6275                    0.0025                   1.8276507903058545E-4
0.6325                    0.0025                   2.3807684912495672E-4
0.6375                    0.0025                   2.846471593218313E-4
0.6425                    0.0025                   3.0151623535277166E-4
0.6475                    0.0025                   3.1838524733951776E-4
0.6525                    0.0025                   2.9495734651856394E-4
0.6575                    0.0025                   2.478797949176269E-4
0.6625                    0.0025                   1.9967827601234412E-4
0.6675                    0.0025                   1.1844022054434826E-4
0.6725                    0.0025                   3.7202909944087E-5
0.6775                    0.0025                   -6.76909413460407E-5
0.6825                    0.0025                   -2.0322811894905488E-4
0.6875                    0.0025                   -3.3876664575186247E-4
0.6925                    0.0025                   -5.209611209430134E-4
0.6975                    0.0025                   -7.121406386630727E-4
0.7025                    0.0025                   -9.077300568346387E-4
0.7075                    0.0025                   -0.0011171661914793239
0.7125                    0.0025                   -0.0013266030131102113
0.7175                    0.0025                   -0.0015529144774889217
0.7225                    0.0025                   -0.0017885292166313696
0.7275                    0.0025                   -0.0020253961097204043
0.7325                    0.0025                   -0.002287160259509335
0.7375                    0.0025                   -0.002548927342170936
0.7425                    0.0025                   -0.0028154007423792033
0.7475                    0.0025                   -0.003087592507835921
0.7525                    0.0025                   -0.0033597876318851912
0.7575                    0.0025                   -0.003628689855410285
0.7625                    0.0025                   -0.0038970340190084807
0.7675                    0.0025                   -0.004163764539704097
0.7725                    0.0025                   -0.004425895701216102
0.7775                    0.0025                   -0.0046880255206662065
0.7825                    0.0025                   -0.0049419256377467476
0.7875                    0.0025                   -0.005191673197213085
0.7925                    0.0025                   -0.005440282718291179
0.7975                    0.0025                   -0.005673817982214875
0.8025                    0.0025                   -0.00590735359530425
0.8075                    0.0025                   -0.006128238669646451
0.8125                    0.0025                   -0.006335244305563739
0.8175                    0.0025                   -0.006542250294062532
0.8225                    0.0025                   -0.0067305342111525016
0.8275                    0.0025                   -0.006916378353454306
0.8325                    0.0025                   -0.007094481600247249
0.8375                    0.0025                   -0.00725398527504699
0.8425                    0.0025                   -0.007413491240658322
0.8475                    0.0025                   -0.007553484061249363
0.8525                    0.0025                   -0.007685311411380657
0.8575                    0.0025                   -0.007815021886862518
0.8625                    0.0025                   -0.007928944898867566
0.8675                    0.0025                   -0.008042868914864717
0.8725                    0.0025                   -0.008141526078293177
0.8775                    0.0025                   -0.008226870027683823
0.8825                    0.0025                   -0.008312215844227326
0.8875                    0.0025                   -0.008383426811321947
0.8925                    0.0025                   -0.008453944259491596
0.8975                    0.0025                   -0.008516194708130307
0.9025                    0.0025                   -0.008564712909678085
0.9075                    0.0025                   -0.00861323146588057
0.9125                    0.0025                   -0.008650381306169354
0.9175                    0.0025                   -0.008684735528847496
0.9225                    0.0025                   -0.008715832777188525
0.9275                    0.0025                   -0.00873630172568005
0.9325                    0.0025                   -0.008756771544592812
0.9375                    0.0025                   -0.008765534993893676
0.9425                    0.0025                   -0.008768604112686769
0.9475                    0.0025                   -0.008770231882198071
0.9525                    0.0025                   -0.008760803483340714
0.9575                    0.0025                   -0.008751423330125345
0.9625                    0.0025                   -0.008740266508148147
0.9675                    0.0025                   -0.008727829558893783
0.9725                    0.0025                   -0.008715144825067741
0.9775                    0.0025                   -0.008691107540617544
0.9825                    0.0025                   -0.008667424505130455
0.9875                    0.0025                   -0.008651847668720606
0.9925                    0.0025                   -0.008643649659304812
0.9975                    0.0025                   -0.008635292585080391
0.0025                    0.0075                   6.535790913995967E-4
0.0075                    0.0075                   6.605159176222362E-4
0.0125                    0.0075                   6.672214129231303E-4
0.0175                    0.0075                   6.734585346447119E-4
0.0225                    0.0075                   6.783728663141584E-4
0.0275                    0.0075                   6.832258199996816E-4
0.0325                    0.0075                   6.83054175613125E-4
0.0375                    0.0075                   6.780396614261745E-4
0.0425                    0.0075                   6.701175072340887E-4
0.0475                    0.0075                   6.552805636486733E-4
0.0525                    0.0075                   6.396465593029857E-4
0.0575                    0.0075                   6.186935154083031E-4
0.0625                    0.0075                   5.930767816973328E-4
0.0675                    0.0075                   5.660742720749631E-4
0.0725                    0.0075                   5.308012645633217E-4
0.0775                    0.0075                   4.949637034753878E-4
0.0825                    0.0075                   4.548569351842283E-4
0.0875                    0.0075                   4.104332183376819E-4
0.0925                    0.0075                   3.6580633198619097E-4
0.0975                    0.0075                   3.1475303266014935E-4
0.1025                    0.0075                   2.6324098096936036E-4
0.1075                    0.0075                   2.0963435801847713E-4
0.1125                    0.0075                   1.5258212081477996E-4
0.1175                    0.0075                   9.590852008891158E-5
0.1225                    0.0075                   3.4015481020165396E-5
0.1275                    0.0075                   -2.8849671256173328E-5
0.1325                    0.0075                   -9.29635102277134E-5
0.1375                    0.0075                   -1.6060670138394914E-4
0.1425                    0.0075                   -2.2836825025451013E-4
0.1475                    0.0075                   -3.0090309554732514E-4
0.1525                    0.0075                   -3.751811539258978E-4
0.1575                    0.0075                   -4.496291994863177E-4
0.1625                    0.0075                   -5.259275295084161E-4
0.1675                    0.0075                   -6.022297336884479E-4
0.1725                    0.0075                   -6.84303783941976E-4
0.1775                    0.0075                   -7.709562594859638E-4
0.1825                    0.0075                   -8.58046262175525E-4
0.1875                    0.0075                   -9.485549309046373E-4
0.1925                    0.0075                   -0.0010391974170626626
0.1975                    0.0075                   -0.0011307412644598136
0.2025                    0.0075                   -0.0012285588479022068
0.2075                    0.0075                   -0.001327232799947345
0.2125                    0.0075                   -0.0014309113368909038
0.2175                    0.0075                   -0.0015355138868587978
0.2225                    0.0075                   -0.0016417850564348028
0.2275                    0.0075                   -0.0017540230492034698
0.2325                    0.0075                   -0.0018662610419721368
0.2375                    0.0075                   -0.001980678179103168
0.2425                    0.0075                   -0.002097819303799312
0.2475                    0.0075                   -0.0022146132442244517
0.2525                    0.0075                   -0.0023367832149459827
0.2575                    0.0075                   -0.0024599841899027863
0.2625                    0.0075                   -0.0025877916814246267
0.2675                    0.0075                   -0.0027174617034771
0.2725                    0.0075                   -0.002846738838308363
0.2775                    0.0075                   -0.0029796661219367495
0.2825                    0.0075                   -0.0031140967511818387
0.2875                    0.0075                   -0.00324888421801199
0.2925                    0.0075                   -0.003391409470918204
0.2975                    0.0075                   -0.003533757339610013
0.3025                    0.0075                   -0.003669762355244994
0.3075                    0.0075                   -0.003802798856321718
0.3125                    0.0075                   -0.003934749675314604
0.3175                    0.0075                   -0.0040686034931873855
0.3225                    0.0075                   -0.00420272737775794
0.3275                    0.0075                   -0.004333023676483084
0.3325                    0.0075                   -0.004465231475593774
0.3375                    0.0075                   -0.0045967657622655094
0.3425                    0.0075                   -0.004721605815514746
0.3475                    0.0075                   -0.004844653526043463
0.3525                    0.0075                   -0.004963224237958317
0.3575                    0.0075                   -0.005077474216196988
0.3625                    0.0075                   -0.0051917241944356585
0.3675                    0.0075                   -0.005294733263927036
0.3725                    0.0075                   -0.005394100261217875
0.3775                    0.0075                   -0.005491797343476308
0.3825                    0.0075                   -0.00557161193714173
0.3875                    0.0075                   -0.005651166695900641
0.3925                    0.0075                   -0.005722048932612611
0.3975                    0.0075                   -0.005784874422451261
0.4025                    0.0075                   -0.005845229158030766
0.4075                    0.0075                   -0.00588264458703521
0.4125                    0.0075                   -0.005916323996519532
0.4175                    0.0075                   -0.0059391298669701125
0.4225                    0.0075                   -0.00594965210486166
0.4275                    0.0075                   -0.005960146199806034
0.4325                    0.0075                   -0.005948781037831007
0.4375                    0.0075                   -0.005922770041209782
0.4425                    0.0075                   -0.005891517549395903
0.4475                    0.0075                   -0.00584083794713437
0.4525                    0.0075                   -0.005790158344872837
0.4575                    0.0075                   -0.005719110495058028
0.4625                    0.0075                   -0.0056340642468774476
0.4675                    0.0075                   -0.005548080941138999
0.4725                    0.0075                   -0.005437315246064958
0.4775                    0.0075                   -0.005321295702752244
0.4825                    0.0075                   -0.0051945741895373185
0.4875                    0.0075                   -0.005044798803370735
0.4925                    0.0075                   -0.0048949496639873686
0.4975                    0.0075                   -0.004728279753768974
0.5025                    0.0075                   -0.004551619590513851
0.5075                    0.0075                   -0.004375764024066125
0.5125                    0.0075                   -0.004176134571949399
0.5175                    0.0075                   -0.003976505119832673
0.5225                    0.0075                   -0.003772614824401893
0.5275                    0.0075                   -0.0035647313505149606
0.5325                    0.0075                   -0.0033567302770105244
0.5375                    0.0075                   -0.0031336273673949946
0.5425                    0.0075                   -0.0029041576052358186
0.5475                    0.0075                   -0.0026790840167300583
0.5525                    0.0075                   -0.0024595036805844556
0.5575                    0.0075                   -0.0022405756965195034
0.5625                    0.0075                   -0.0020254035864143262
0.5675                    0.0075                   -0.0018018816523930053
0.5725                    0.0075                   -0.0015815074425568733
0.5775                    0.0075                   -0.0013861527491432692
0.5825                    0.0075                   -0.001190798055729665
0.5875                    0.0075                   -0.0010040036203458294
0.5925                    0.0075                   -8.141286350609722E-4
0.5975                    0.0075                   -6.310884516123462E-4
0.6025                    0.0075                   -4.8721851184390605E-4
0.6075                    0.0075                   -3.502629260080036E-4
0.6125                    0.0075                   -2.345026641807735E-4
0.6175                    0.0075                   -1.2367793938909E-4
0.6225                    0.0075                   -1.3445283380099022E-5
0.6275                    0.0075                   6.032751244963218E-5
0.6325                    0.0075                   1.1483856521517753E-4
0.6375                    0.0075                   1.5409450661732426E-4
0.6425                    0.0075                   1.6967636911833302E-4
0.6475                    0.0075                   1.8479256675980418E-4
0.6525                    0.0075                   1.636776668027099E-4
0.6575                    0.0075                   1.1865264135532748E-4
0.6625                    0.0075                   6.746723931478939E-5
0.6675                    0.0075                   -1.008554069317236E-5
0.6725                    0.0075                   -9.171218743375849E-5
0.6775                    0.0075                   -1.9627500113751617E-4
0.6825                    0.0075                   -3.3386235000197416E-4
0.6875                    0.0075                   -4.725114179746275E-4
0.6925                    0.0075                   -6.435704927859721E-4
0.6975                    0.0075                   -8.26446768181762E-4
0.7025                    0.0075                   -0.0010126263941311515
0.7075                    0.0075                   -0.0012149907712778768
0.7125                    0.0075                   -0.0014173551484246024
0.7175                    0.0075                   -0.001642504357896145
0.7225                    0.0075                   -0.001878597483841844
0.7275                    0.0075                   -0.0021163867899995584
0.7325                    0.0075                   -0.0023692001443298117
0.7375                    0.0075                   -0.0026260832693323776
0.7425                    0.0075                   -0.002882851987140627
0.7475                    0.0075                   -0.0031503424655758795
0.7525                    0.0075                   -0.0034170872417009727
0.7575                    0.0075                   -0.0036777782834351777
0.7625                    0.0075                   -0.003940929425456278
0.7675                    0.0075                   -0.00420081418902023
0.7725                    0.0075                   -0.004457956226135241
0.7775                    0.0075                   -0.00471514339594535
0.7825                    0.0075                   -0.004961261247208026
0.7875                    0.0075                   -0.005207846838928854
0.7925                    0.0075                   -0.00544898354328682
0.7975                    0.0075                   -0.005678382260165622
0.8025                    0.0075                   -0.005908068226722741
0.8075                    0.0075                   -0.006122944305693788
0.8125                    0.0075                   -0.0063269634800298576
0.8175                    0.0075                   -0.006529385568372944
0.8225                    0.0075                   -0.00671414133439164
0.8275                    0.0075                   -0.006896815330004098
0.8325                    0.0075                   -0.0070690567955322935
0.8375                    0.0075                   -0.007227849025599638
0.8425                    0.0075                   -0.007386534102825838
0.8475                    0.0075                   -0.007521973309371535
0.8525                    0.0075                   -0.007653195694204227
0.8575                    0.0075                   -0.007779691157540771
0.8625                    0.0075                   -0.007893376661303523
0.8675                    0.0075                   -0.00800608986566506
0.8725                    0.0075                   -0.008100765936090779
0.8775                    0.0075                   -0.008187202754214404
0.8825                    0.0075                   -0.008271309014574409
0.8875                    0.0075                   -0.008343896344957266
0.8925                    0.0075                   -0.008414368222128838
0.8975                    0.0075                   -0.008473645946815048
0.9025                    0.0075                   -0.00852420011215126
0.9075                    0.0075                   -0.008573045396377748
0.9125                    0.0075                   -0.008610709762175775
0.9175                    0.0075                   -0.008646520784401429
0.9225                    0.0075                   -0.008676702124305817
0.9275                    0.0075                   -0.008699138968612472
0.9325                    0.0075                   -0.008720590158320657
0.9375                    0.0075                   -0.008729577761626871
0.9425                    0.0075                   -0.008735299490916885
0.9475                    0.0075                   -0.008736486509764975
0.9525                    0.0075                   -0.00873013045516148
0.9575                    0.0075                   -0.008723619881984099
0.9625                    0.0075                   -0.008715802525800469
0.9675                    0.0075                   -0.008705203622461032
0.9725                    0.0075                   -0.008693045910439004
0.9775                    0.0075                   -0.008676184576677461
0.9825                    0.0075                   -0.008659676416603285
0.9875                    0.0075                   -0.008646698736746046
0.9925                    0.0075                   -0.008634820065074912
0.9975                    0.0075                   -0.008626318115039285
0.0025                    0.0125                   6.463645325864303E-4
0.0075                    0.0125                   6.52995174612616E-4
0.0125                    0.0125                   6.601464931844804E-4
0.0175                    0.0125                   6.65312517504929E-4
0.0225                    0.0125                   6.702466250249858E-4
0.0275                    0.0125                   6.712828786375677E-4