% Model:              lid_driven_cavity.mph
% Version:            COMSOL 4.3.2.152
% Date:               Jun 11 2013, 21:53
% Dimension:          2
% Nodes:              861
% Expressions:        1
% Description:        Contour
% x                       y                        IsoLevel
0                         0.9993203859183575       -0.5847425843550274
1.3036310393449638E-4     0.9992431600453578       -0.5847425843550274
2.681507811796315E-4      0.9997318492188203       -0.5847425843550274
5.691824462619528E-4      1                        -0.5847425843550274
0                         0.9979611577554255       -0.5282501582777053
3.9108931173575473E-4     0.9977294801364666       -0.5282501582777053
8.044523433995679E-4      0.9991955476566003       -0.5282501582777053
0.001707547338490121      1                        -0.5282501582777053
0                         0.9966019295924935       -0.47175773220038314
6.518155195370133E-4      0.9962158002275754       -0.47175773220038314
0.0013407539056195046     0.9986592460943805       -0.47175773220038314
0.00284591223071829       1                        -0.47175773220038314
0                         0.9952427014295616       -0.41526530612306106
9.125417273382715E-4      0.9947021203186843       -0.41526530612306106
0.0018770554678394409     0.9981229445321605       -0.41526530612306106
0.003984277122946458      1                        -0.41526530612306106
0                         0.9938834732666296       -0.35877288004573893
0.0022117769600538393     0.9968717024196163       -0.35877288004573893
0.005122642015174627      1                        -0.35877288004573893
0.0029943864283635186     0.9978161556898077       -0.35877288004573893
0.0024659769376098564     0.996573319734565        -0.35877288004573893
0.0024538299919099954     0.99754617000809         -0.35877288004573893
0.0011732679351395302     0.993188440409793        -0.35877288004573893
0.00281916377305757       0.9979481245274145       -0.35877288004573893
0                         0.9925242451036977       -0.30228045396841685
0.002283383587465877      0.9946872753635649       -0.30228045396841685
0.006261006907402796      1                        -0.30228045396841685
0.0048701131547824565     0.9978089411469211       -0.30228045396841685
0.003123581188672473      0.9937010423251824       -0.30228045396841685
0.0030834323470512676     0.9969165676529486       -0.30228045396841685
0.0014339941429407886     0.9916747605009019       -0.30228045396841685
0.004290956318969343      0.9982451327699783       -0.30228045396841685
0                         0.9911650169407658       -0.24578802789109472
0.0023549902148779153     0.9925028483075136       -0.24578802789109472
0.007399371799630964      1                        -0.24578802789109472
0.006745839881201397      0.9978017266040345       -0.24578802789109472
0.0037811854397350893     0.9908287649158001       -0.24578802789109472
0.0037130347021925407     0.9962869652978075       -0.24578802789109472
0.0016947203507420472     0.9901610805920106       -0.24578802789109472
0.005762748864881118      0.9985421410125421       -0.24578802789109472
0                         0.9898057887778338       -0.18929560181377264
0.0024265968422899527     0.9903184212514624       -0.18929560181377264
0.008537736691859131      1                        -0.18929560181377264
0.008621566607620337      0.997794512061148        -0.18929560181377264
0.004438789690797706      0.9879564875064177       -0.18929560181377264
0.004342637057333813      0.9956573629426662       -0.18929560181377264
0.0019554465585433054     0.9886474006831194       -0.18929560181377264
0.00723454141079289       0.9988391492551059       -0.18929560181377264
0.005005996186934788      0.992324176651456        -0.1328031757364505
0.007116939296564762      0.9933129195438538       -0.1328031757364505
0                         0.9884465606149019       -0.1328031757364505
0.0024982034697019913     0.988133994195411        -0.1328031757364505
0.0096761015840873        1                        -0.1328031757364505
0.010497293334039277      0.9977872975182615       -0.1328031757364505
0.006967624055108101      0.9951834295319736       -0.1328031757364505
0.002216172766344564      0.9871337207742282       -0.1328031757364505
0.008706333956704664      0.9991361574976697       -0.1328031757364505
0.005096393941860323      0.9850842100970353       -0.1328031757364505
0.005874968419303526      0.9954786365550999       -0.1328031757364505
0.014789761643244055      0.9951149492500947       -0.07631074965912842
0.005752805308147908      0.9815396198562982       -0.07631074965912842
0.013003691586150369      0.9824588295598242       -0.07631074965912842
0.017745301463907622      0.9880802356945089       -0.07631074965912842
0.27405143510498525       0.4762819334129608       -0.07631074965912842
0.27306840412278643       0.4789748892674854       -0.07631074965912842
0.3699338860700804        0.34911662756363626      -0.07631074965912842
0.37472210218721175       0.34540374411431657      -0.07631074965912842
0.25977592523028126       0.5260356840552217       -0.07631074965912842
0.26017541956434725       0.523499599827617        -0.07631074965912842
0.2667163460115385        0.49848160041818906      -0.07631074965912842
0.2567648756280748        0.5622571305127524       -0.07631074965912842
0.293546188429864         0.435805480191824        -0.07631074965912842
0.29199200996089736       0.4386409549748374       -0.07631074965912842
0.28292990663240203       0.45649672803779084      -0.07631074965912842
0.30684956335027713       0.4156097011743132       -0.07631074965912842
0.3230127994571197        0.39432595525822023      -0.07631074965912842
0.3423714820706463        0.3732059017521974       -0.07631074965912842
0.3958159718340576        0.3319299696440665       -0.07631074965912842
0.4188220098858314        0.3196462344742508       -0.07631074965912842
0.26427203474220273       0.6204992324270974       -0.07631074965912842
0.2590706717877498        0.5945665673370715       -0.07631074965912842
0.26535732718878663       0.6235284387800311       -0.07631074965912842
0.4405544586418715        0.3105071661776154       -0.07631074965912842
0.465153111145448         0.3030983132515948       -0.07631074965912842
0.49155602380716096       0.2981738069811553       -0.07631074965912842
0.2825837747065956        0.6643962553455086       -0.07631074965912842
0.27271682087245697       0.6436023799465285       -0.07631074965912842
0.5222917241488929        0.2962496096363661       -0.07631074965912842
0.5593822721920182        0.29846378941514745      -0.07631074965912842
0.2914462763168236        0.6795618889560836       -0.07631074965912842
0.565703221487198         0.29934707189014786      -0.07631074965912842
0.5902970896144242        0.30423007427393634      -0.07631074965912842
0.3152337412410742        0.7122532042709603       -0.07631074965912842
0.29428983766144945       0.6843201577960037       -0.07631074965912842
0.3100270656697324        0.706153698650309        -0.07631074965912842
0.6048206816332877        0.3079558324267855       -0.07631074965912842
0.6149739380303684        0.3111587809241123       -0.07631074965912842
0.33484800376703605       0.7345383597667338       -0.07631074965912842
0.3396003073612789        0.7392945772928249       -0.07631074965912842
0.6398929741605099        0.32079984276065215      -0.07631074965912842
0.3777868168217001        0.774547697278263        -0.07631074965912842
0.3559962315095617        0.7550048800784479       -0.07631074965912842
0.399054030717022         0.7930318205864646       -0.07631074965912842
0.39752598682011886       0.7917669880848904       -0.07631074965912842
0.6659700555036479        0.33364475711238223      -0.07631074965912842
0.6915458193552235        0.34958989492299725      -0.07631074965912842
0.7002625182136718        0.35577065095130445      -0.07631074965912842
0.43456966133960406       0.820162376793265        -0.07631074965912842
0.44135956390275405       0.8253474266529812       -0.07631074965912842
0.41716276232487925       0.8068542887892526       -0.07631074965912842
0.7193984826147349        0.37087676518369445      -0.07631074965912842
0.731676103627072         0.38188102865535967      -0.07631074965912842
0.7391646164441097        0.38917357909303585      -0.07631074965912842
0.46391907376020736       0.8407148636306133       -0.07631074965912842
0.7579917960728306        0.4100847988703214       -0.07631074965912842
0.4836154349695415        0.8527969704659807       -0.07631074965912842
0.5028282436744451        0.8624098516710957       -0.07631074965912842
0.5145313405144878        0.8674494805801147       -0.07631074965912842
0.7758759814661903        0.4325044571525854       -0.07631074965912842
0.7853539025037382        0.44656939447780697      -0.07631074965912842
0.7919910744880272        0.4570046937426626       -0.07631074965912842
0.5415310912138779        0.8750674798169191       -0.07631074965912842
0.5413567192270285        0.8750091653050999       -0.07631074965912842
0.5202015348810053        0.8697481070782813       -0.07631074965912842
0.8058769977790411        0.4818219224743424       -0.07631074965912842
0.80691784665079          0.48380771723058225      -0.07631074965912842
0.5417337360680813        0.8750804524012115       -0.07631074965912842
0.8180186086491875        0.5120991040353605       -0.07631074965912842
0.5644681061657897        0.8754419994600904       -0.07631074965912842
0.581497665533355         0.8715724738719625       -0.07631074965912842
0.582222576407932         0.8714401385453715       -0.07631074965912842
0.8256841706691964        0.5407906197730343       -0.07631074965912842
0.5984218912749985        0.8639443709743471       -0.07631074965912842
0.8279344924678904        0.550437955045167        -0.07631074965912842
0.8289539415421011        0.574545937967341        -0.07631074965912842
0.6129714068046453        0.8543300073805351       -0.07631074965912842
0.8289459679076236        0.5746137672454896       -0.07631074965912842
0.6384977185054866        0.8343774309354289       -0.07631074965912842
0.6207810703874975        0.849439119795963        -0.07631074965912842
0.8267628368193505        0.5940026286339934       -0.07631074965912842
0.8210984778284494        0.6132005424896829       -0.07631074965912842
0.6385664493175777        0.8343001252569849       -0.07631074965912842
0.6394285513888942        0.8334648673817149       -0.07631074965912842
0.658261325669347         0.8152643976465691       -0.07631074965912842
0.8199877229145918        0.6156925524386483       -0.07631074965912842
0.6739038374336281        0.7992802831817175       -0.07631074965912842
0.813950390560445         0.6292081993143475       -0.07631074965912842
0.8047479932812633        0.6454362092844207       -0.07631074965912842
0.8022928241433882        0.6496020764637069       -0.07631074965912842
0.7003764976067364        0.7713071356950294       -0.07631074965912842
0.7061292498137106        0.7650117804669112       -0.07631074965912842
0.6895304934014859        0.78287613198689         -0.07631074965912842
0.7846159248256526        0.6743884429514296       -0.07631074965912842
0.7253839558672923        0.7434620280578186       -0.07631074965912842
0.7704918386690924        0.6918925227685749       -0.07631074965912842
0.7332795646513504        0.7350408817546996       -0.07631074965912842
0.7535024692677724        0.7120525236580444       -0.07631074965912842
0                         0.9870873324519699       -0.07631074965912842
0.002569810097114029      0.9859495671393597       -0.07631074965912842
0.01081446647631547       1                        -0.07631074965912842
0.012373020060458215      0.9977800829753749       -0.07631074965912842
0.005523035430886503      0.9824830392776138       -0.07631074965912842
0.015027881550170326      0.9921319606420296       -0.07631074965912842
0.006966152488873145      0.9817767207196748       -0.07631074965912842
0.2751782421913879        0.473605145259759        -0.07631074965912842
0.3790145463632406        0.34236862553407243      -0.07631074965912842
0.26101234556782743       0.5200218559010881       -0.07631074965912842
0.25686911118754513       0.5550447802888796       -0.07631074965912842
0.2947111685646366        0.4338599794428193       -0.07631074965912842
0.31529679897222357       0.40384385751373175      -0.07631074965912842
0.334920624217095         0.38074261687833105      -0.07631074965912842
0.3543447093294078        0.3620937424387545       -0.07631074965912842
0.41087188300405486       0.323541009718076        -0.07631074965912842
0.43796271345800747       0.3114704330296991       -0.07631074965912842
0.26385736009336874       0.6190280139152756       -0.07631074965912842
0.2579964999523274        0.586490940817038        -0.07631074965912842
0.46487368702753257       0.3031700507717007       -0.07631074965912842
0.4908056905453695        0.2982765692739691       -0.07631074965912842
0.5146065596918912        0.2964800745609207       -0.07631074965912842
0.2774653729728731        0.6545253717182773       -0.07631074965912842
0.5394851951929387        0.296866736647304        -0.07631074965912842
0.5748230830918346        0.30084830755006603      -0.07631074965912842
0.2978919107493062        0.6895542576365927       -0.07631074965912842
0.6243270029145157        0.31433320145432325      -0.07631074965912842
0.3327960416861271        0.7324860759262787       -0.07631074965912842
0.6562760637181961        0.32845609933700676      -0.07631074965912842
0.3641889067277386        0.7627872794813095       -0.07631074965912842
0.39679150557859655       0.7911561122973123       -0.07631074965912842
0.6802707211627133        0.3421795603259461       -0.07631074965912842
0.7101756002253923        0.3632494304722615       -0.07631074965912842
0.428469685497586         0.8155263349658665       -0.07631074965912842
0.7435745233975558        0.39371130526986403      -0.07631074965912842
0.4523236360026258        0.8327606529031879       -0.07631074965912842
0.7720906149388617        0.42726140762000164      -0.07631074965912842
0.47188388489129757       0.8452386264181588       -0.07631074965912842
0.497457502474391         0.8592769081750734       -0.07631074965912842
0.793301226304466         0.4589703680317562       -0.07631074965912842
0.5400331222601721        0.8746588036413997       -0.07631074965912842
0.8084678712794818        0.4868248898416763       -0.07631074965912842
0.5593059796315705        0.8760068573891394       -0.07631074965912842
0.8213673082142026        0.5212102167573226       -0.07631074965912842
0.5824345783596169        0.8713691163682453       -0.07631074965912842
0.6041136214997203        0.8609955619260368       -0.07631074965912842
0.8289516141884231        0.5744454164016142       -0.07631074965912842
0.638304049028616         0.8345563026982873       -0.07631074965912842
0.8216392617580738        0.6113801407546353       -0.07631074965912842
0.6603671203548596        0.8134334697289503       -0.07631074965912842
0.6823650867739355        0.790986330198321        -0.07631074965912842
0.8079948442429867        0.6394862015029696       -0.07631074965912842
0.7118860172281178        0.7588956078467396       -0.07631074965912842
0.792745317751548         0.662994469087183        -0.07631074965912842
0.780200128396685         0.6795181831867414       -0.07631074965912842
0.7437162522491159        0.7228549740386951       -0.07631074965912842
0.7614592521639757        0.7023461962735307       -0.07631074965912842
0.002476898974145822      0.985620040865337        -0.07631074965912842
0.010178126502616437      0.9994331657402336       -0.07631074965912842
0.009758534971990248      0.9964742553293624       -0.07631074965912842
0.06877762219897882       0.9935246002090442       -0.019818323581806338
0.07567717691341114       0.9880183537915488       -0.019818323581806338
0.006413394411575121      0.4673207522589699       -0.019818323581806338
0.012687801157334644      0.46719199286637897      -0.019818323581806338
0.08237981163112201       0.9792238035728471       -0.019818323581806338
0.018042353571298138      0.46676296813359586      -0.019818323581806338
0.020374199037392633      0.46658069984321915      -0.019818323581806338
0.0838796499628191        0.9703691026064989       -0.019818323581806338
0.07907156495867464       0.9555355525886783       -0.019818323581806338
0.032050474603495104      0.4645459631254304       -0.019818323581806338
0.03703262259115459       0.4627386927884962       -0.019818323581806338
0.07907132290355107       0.9406694756831999       -0.019818323581806338
0.056293755267576434      0.45462679269897693      -0.019818323581806338
0.058526525527688694      0.4536401892598527       -0.019818323581806338
0.08036345518218663       0.9251645727319779       -0.019818323581806338
0.08036829763974959       0.9232528910825906       -0.019818323581806338
0.07094828727587013       0.44555052614052093      -0.019818323581806338
0.08584613659062822       0.9039399766084706       -0.019818323581806338
0.0850137067812186        0.43380561429520087      -0.019818323581806338
0.0891896063357451        0.4304698051409655       -0.019818323581806338
0.08605383470083694       0.903241719264363        -0.019818323581806338
0.09476797884105884       0.8848671630840951       -0.019818323581806338
0.10283791912583079       0.41655617740518797      -0.019818323581806338
0.09648049583312897       0.8816299310655542       -0.019818323581806338
0.11537258291858843       0.40254613578758125      -0.019818323581806338
0.1346150367992794        0.3799902814157161       -0.019818323581806338
0.1428411242616717        0.3695643637291791       -0.019818323581806338
0.15588890805041705       0.3524681766555233       -0.019818323581806338
0.1704106303844689        0.33422689603371203      -0.019818323581806338
0.18628273419289454       0.31495320949400857      -0.019818323581806338
0.1884564474489901        0.312416225166352        -0.019818323581806338
0.2439883049809705        0.252023816253623        -0.019818323581806338
0.24115409409707073       0.25491057154077507      -0.019818323581806338
0.20785684813439792       0.2890844134023856       -0.019818323581806338
0.2262507478924862        0.2693144379938957       -0.019818323581806338
0.26244436382553166       0.23447507117957345      -0.019818323581806338
0.3088520913329824        0.19974766910324854      -0.019818323581806338
0.29946717607000267       0.2069446490828697       -0.019818323581806338
0.11383092256099403       0.8556046916375157       -0.019818323581806338
0.10671823581960418       0.8657279819013195       -0.019818323581806338
0.1287688321419912        0.3870251410897008       -0.019818323581806338
0.33388880318554603       0.1844206381989511       -0.019818323581806338
0.35465569428642035       0.17317456926185476      -0.019818323581806338
0.2845920254592777        0.21681810948278626      -0.019818323581806338
0.3759158256026058        0.16416526472469484      -0.019818323581806338
0.39950791251191          0.1558551237770811       -0.019818323581806338
0.4244710742710032        0.14870042787391197      -0.019818323581806338
0.12899089612151196       0.843006916653989        -0.019818323581806338
0.4567419067981828        0.1437661809213556       -0.019818323581806338
0.4550400590429506        0.14411900768466593      -0.019818323581806338
0.45783189327897617       0.14371712137612486      -0.019818323581806338
0.1368035070400247        0.8387970558470972       -0.019818323581806338
0.15925624800879268       0.8337044544033182       -0.019818323581806338
0.34147971345513684       0.9886670944995497       -0.019818323581806338
0.33793202935091965       0.9796769328104774       -0.019818323581806338
0.3377403833348725        0.9789676611891951       -0.019818323581806338
0.4803168203169698        0.14190350915937414      -0.019818323581806338
0.48272300729098006       0.14198012745093444      -0.019818323581806338
0.49870862611885025       0.14129234623618672      -0.019818323581806338
0.5236004627288745        0.14329740507710662      -0.019818323581806338
0.5296936443089808        0.14382701699212908      -0.019818323581806338
0.18565546866072735       0.8355050531431337       -0.019818323581806338
0.33433756046100865       0.9680758512448213       -0.019818323581806338
0.33369282965742697       0.9662725412293224       -0.019818323581806338
0.5524554923040828        0.1469752271960131       -0.019818323581806338
0.5582875731270587        0.14801418535130248      -0.019818323581806338
0.5749429261254104        0.15072347474176712      -0.019818323581806338
0.9912336514694365        0.3741717618537023       -0.019818323581806338
0.21264564797418745       0.844043906865223        -0.019818323581806338
0.23208755131456205       0.8530714567595044       -0.019818323581806338
0.243353103956354         0.8591412665243665       -0.019818323581806338
0.3281939342286636        0.9475687565504142       -0.019818323581806338
0.6037051972610226        0.15810961755689248      -0.019818323581806338
0.6245336593168113        0.16334785398382126      -0.019818323581806338
0.6012456758841582        0.15734449556322197      -0.019818323581806338
0.9803941486996686        0.3775670141264025       -0.019818323581806338
0.2988244021465749        0.9034244342161237       -0.019818323581806338
0.29421814143787395       0.8984116577462636       -0.019818323581806338
0.280574867215738         0.8855496396647633       -0.019818323581806338
0.26679157653582386       0.8744969887351439       -0.019818323581806338
0.250635383251858         0.8635265201881552       -0.019818323581806338
0.32171391074853795       0.9345323817394486       -0.019818323581806338
0.3130538997993918        0.9207029231453695       -0.019818323581806338
0.660374895848906         0.1752275422388202       -0.019818323581806338
0.6480094028834732        0.17073497299036863      -0.019818323581806338
0.6885401319314362        0.18607686230827528      -0.019818323581806338
0.7156996527453446        0.19726026148244205      -0.019818323581806338
0.7195259672537229        0.19887869596081836      -0.019818323581806338
0.744955175962225         0.21198442583241087      -0.019818323581806338
0.967928244770466         0.38285857256855815      -0.019818323581806338
0.7648047742066132        0.22526855493788112      -0.019818323581806338
0.7754670840269208        0.2337981012462249       -0.019818323581806338
0.7863214941256016        0.24047686289739195      -0.019818323581806338
0.7904784053694274        0.24399869133629296      -0.019818323581806338
0.9662872078238751        0.38342020865819676      -0.019818323581806338
0.9513279760240785        0.3860477523997833       -0.019818323581806338
0.8128259852157873        0.26347408472809225      -0.019818323581806338
0.8168555273412799        0.26791492555295504      -0.019818323581806338
0.8327224641168538        0.2815315136821147       -0.019818323581806338
0.9336803659783904        0.3829656473953994       -0.019818323581806338
0.8488343651681678        0.29975584629041147      -0.019818323581806338
0.8630385070635747        0.3159589933070828       -0.019818323581806338
0.8560186726591283        0.30926122336198664      -0.019818323581806338
0.8755629542280459        0.3311225489130508       -0.019818323581806338
0.9007385769702965        0.35899839362604363      -0.019818323581806338
0.8997403353161664        0.35814771738456885      -0.019818323581806338
0.9015629556399781        0.35958973065781247      -0.019818323581806338
0.9149014229512444        0.3714883556719587       -0.019818323581806338
0.914122483960523         0.37074229011965687      -0.019818323581806338
0.888463376241251         0.3443550791820954       -0.019818323581806338
0.9693323007951385        0.77389788744328         -0.019818323581806338
0.9789024765821104        0.7734789504359083       -0.019818323581806338
0.9668281969098487        0.7740322129916113       -0.019818323581806338
0.9521729665960865        0.7767256865439346       -0.019818323581806338
0.7847041224431053        0.9718987910883845       -0.019818323581806338
0.9876234980712709        0.7742034321536302       -0.019818323581806338
0.9883922217384074        0.7744849064778507       -0.019818323581806338
0.9408702061941967        0.780360183644127        -0.019818323581806338
0.7863241711306554        0.9581872948469462       -0.019818323581806338
0.783474876880532         0.9868681497318665       -0.019818323581806338
0.783661253024512         0.9788468702015454       -0.019818323581806338
0.7835579032492075        0.9890751177594101       -0.019818323581806338
0.938507947472525         0.7809310884820828       -0.019818323581806338
0.9270371116058332        0.7845999780279657       -0.019818323581806338
0.9222470746597994        0.7871582511490041       -0.019818323581806338
0.7900706094979046        0.9403457487586377       -0.019818323581806338
0.7950724841846388        0.921904077591764        -0.019818323581806338
0.9069544537534342        0.7947658917582702       -0.019818323581806338
0.8009208651190338        0.9036623750404998       -0.019818323581806338
0.8012842841354112        0.9026741805748986       -0.019818323581806338
0.9044072312905396        0.7960246885225262       -0.019818323581806338
0.8911621886869077        0.8034052924716089       -0.019818323581806338
0.8882853344883537        0.8051211609778073       -0.019818323581806338
0.8107881117460597        0.881932539427401        -0.019818323581806338
0.8111638955219742        0.8812635027182455       -0.019818323581806338
0.8282541120192126        0.8550461291832165       -0.019818323581806338
0.8480117597080647        0.8336961589735796       -0.019818323581806338
0.868268154822145         0.8174289270447006       -0.019818323581806338
0.011952831368543637      1                        -0.019818323581806338
0.014248746786877153      0.9977728684324882       -0.019818323581806338
0.026036615185694584      0.9999071562681872       -0.019818323581806338
0.04861173998028985       1                        -0.019818323581806338
0.051313305772906374      0.9971405937501907       -0.019818323581806338
0.06271130784753956       1                        -0.019818323581806338
0.06343661188782174       0.9970690340469024       -0.019818323581806338
0.0023774819948267625     0.46753250941466534      -0.019818323581806338
0.06737634290742764       1                        -0.019818323581806338
0.06722989850695829       0.9970566895279395       -0.019818323581806338
0.34386288425444067       1                        -0.019818323581806338
0.3435920477836774        0.9970708638482859       -0.019818323581806338
1                         0.3722847565448619       -0.019818323581806338
0.9971066682137537        0.37274830780480167      -0.019818323581806338
1                         0.7777388019515246       -0.019818323581806338
0.9970751306286385        0.777238138754956        -0.019818323581806338
0.7837954936227163        1                        -0.019818323581806338
0.7836916414562788        0.9970841087360544       -0.019818323581806338
0.013642101524676969      0.997469874103625        -0.019818323581806338
0.015466471292089853      0.9969769770274813       -0.019818323581806338
0.051343352822538345      0.9965738906167462       -0.019818323581806338
0.05394004655040732       0.995610155089572        -0.019818323581806338
0.0029154366799818373     0.4675277064187214       -0.019818323581806338
0.3429020696179087        0.9935568150669898       -0.019818323581806338
0.9936347157734564        0.3735224730248947       -0.019818323581806338
0.9935657186127387        0.7763183420063108       -0.019818323581806338
0.7833933022785226        0.99358529735044         -0.019818323581806338
0.07354924035978072       0.9897588068608925       -0.019818323581806338
0.0065926706034456365     0.46731596462298486      -0.019818323581806338
0.08134423412633526       0.9829249421679223       -0.019818323581806338
0.02528568815724124       0.4657212439798999       -0.019818323581806338
0.08248104098302653       0.9659702903066605       -0.019818323581806338
0.07860842193438639       0.954089444151217        -0.019818323581806338
0.04482998542022346       0.46004509171291674      -0.019818323581806338
0.07844697266639258       0.9382203365501283       -0.019818323581806338
0.06024127601724176       0.45273155460417414      -0.019818323581806338
0.08062329131946432       0.9210689483059152       -0.019818323581806338
0.07577828233174234       0.4424017271197038       -0.019818323581806338
0.09301573245069032       0.42720606158858065      -0.019818323581806338
0.08724446287321769       0.9009520288119788       -0.019818323581806338
0.11099769820375736       0.40840599335016625      -0.019818323581806338
0.1048915072641194        0.8677807895996897       -0.019818323581806338
0.12729633530043005       0.3891111152884216       -0.019818323581806338
0.14551653864353822       0.36655405718836176      -0.019818323581806338
0.1630472330251027        0.3440028873306272       -0.019818323581806338
0.18386832345900606       0.3181639912881645       -0.019818323581806338
0.2028804737944156        0.2948325385313182       -0.019818323581806338
0.244867184073209         0.25122342799875347      -0.019818323581806338
0.22330922882481316       0.27250299041676906      -0.019818323581806338
0.2765139978677844        0.22357937748089313      -0.019818323581806338
0.31392896834360084       0.19655870081572335      -0.019818323581806338
0.11881294009234308       0.8512004991728293       -0.019818323581806338
0.34146771642651746       0.180298520213914        -0.019818323581806338
0.36919535827298633       0.1672005826575948       -0.019818323581806338
0.39537728856822135       0.15714646235654692      -0.019818323581806338