% Model:              lid_driven_cavity.mph
% Version:            COMSOL 4.3.2.152
% Date:               Jun 9 2013, 19:16
% Dimension:          2
% Nodes:              40000
% Expressions:        1
% Description:        Velocity field, x component
% Length unit:        m
% x                       y                        u (m/s)
0.0025                    0.0025                   -6.757185700479376E-6
0.0075                    0.0025                   2.2780462749410036E-6
0.0125                    0.0025                   8.889576360881695E-6
0.0175                    0.0025                   2.9595967062578505E-5
0.0225                    0.0025                   6.277048212326347E-5
0.0275                    0.0025                   9.364573345412009E-5
0.0325                    0.0025                   1.3951165456767013E-4
0.0375                    0.0025                   1.8726347957751462E-4
0.0425                    0.0025                   2.370495258767687E-4
0.0475                    0.0025                   2.8770322956967625E-4
0.0525                    0.0025                   3.380247991527563E-4
0.0575                    0.0025                   3.8642765964284486E-4
0.0625                    0.0025                   4.342485693390478E-4
0.0675                    0.0025                   4.794694642753894E-4
0.0725                    0.0025                   5.202396509523589E-4
0.0775                    0.0025                   5.60706729736197E-4
0.0825                    0.0025                   5.936479204204164E-4
0.0875                    0.0025                   6.24425301105103E-4
0.0925                    0.0025                   6.523317601968971E-4
0.0975                    0.0025                   6.71117297218919E-4
0.1025                    0.0025                   6.897413017990102E-4
0.1075                    0.0025                   7.012585519037681E-4
0.1125                    0.0025                   7.090782150075014E-4
0.1175                    0.0025                   7.160864765493705E-4
0.1225                    0.0025                   7.142363561446234E-4
0.1275                    0.0025                   7.123902498667376E-4
0.1325                    0.0025                   7.058136884215064E-4
0.1375                    0.0025                   6.944771322962723E-4
0.1425                    0.0025                   6.831518269858589E-4
0.1475                    0.0025                   6.617959921976663E-4
0.1525                    0.0025                   6.394802213197916E-4
0.1575                    0.0025                   6.148405356873287E-4
0.1625                    0.0025                   5.852985234880173E-4
0.1675                    0.0025                   5.557846788407647E-4
0.1725                    0.0025                   5.202574613385301E-4
0.1775                    0.0025                   4.825236242328145E-4
0.1825                    0.0025                   4.429929323348622E-4
0.1875                    0.0025                   3.916309435861835E-4
0.1925                    0.0025                   3.403339422320443E-4
0.1975                    0.0025                   2.854650821276042E-4
0.2025                    0.0025                   2.27546187359979E-4
0.2075                    0.0025                   1.697028641443897E-4
0.2125                    0.0025                   9.96172782415506E-5
0.2175                    0.0025                   2.8814013813896267E-5
0.2225                    0.0025                   -4.701404941422396E-5
0.2275                    0.0025                   -1.3252076357207784E-4
0.2325                    0.0025                   -2.1805403740044477E-4
0.2375                    0.0025                   -3.1161169494271703E-4
0.2425                    0.0025                   -4.0804826579345066E-4
0.2475                    0.0025                   -5.067374001850732E-4
0.2525                    0.0025                   -6.174162801220902E-4
0.2575                    0.0025                   -7.283478706620844E-4
0.2625                    0.0025                   -8.480805360615224E-4
0.2675                    0.0025                   -9.74875219809747E-4
0.2725                    0.0025                   -0.0011017557395454174
0.2775                    0.0025                   -0.0012414127429689467
0.2825                    0.0025                   -0.0013816473919505393
0.2875                    0.0025                   -0.001529251954330701
0.2925                    0.0025                   -0.0016901294615138708
0.2975                    0.0025                   -0.0018509536587005115
0.3025                    0.0025                   -0.00203062519043583
0.3075                    0.0025                   -0.002216176268215166
0.3125                    0.0025                   -0.0024021760246988443
0.3175                    0.0025                   -0.0025910140345312355
0.3225                    0.0025                   -0.0027799073713543725
0.3275                    0.0025                   -0.002976538910455975
0.3325                    0.0025                   -0.003179263817195908
0.3375                    0.0025                   -0.003382199423684867
0.3425                    0.0025                   -0.003600656523393291
0.3475                    0.0025                   -0.0038198020579597617
0.3525                    0.0025                   -0.004042072372329257
0.3575                    0.0025                   -0.004269479386942422
0.3625                    0.0025                   -0.004496975092050305
0.3675                    0.0025                   -0.004729189539528017
0.3725                    0.0025                   -0.0049627551661372
0.3775                    0.0025                   -0.005197481879901266
0.3825                    0.0025                   -0.005437792285461411
0.3875                    0.0025                   -0.005678140494442983
0.3925                    0.0025                   -0.00591871212223915
0.3975                    0.0025                   -0.0061597024758076315
0.4025                    0.0025                   -0.006401042281480897
0.4075                    0.0025                   -0.006634656976347096
0.4125                    0.0025                   -0.006868408502692974
0.4175                    0.0025                   -0.007097393012938188
0.4225                    0.0025                   -0.007318218229519417
0.4275                    0.0025                   -0.007538903753831771
0.4325                    0.0025                   -0.007755978185205766
0.4375                    0.0025                   -0.007971895775359776
0.4425                    0.0025                   -0.00818191360786019
0.4475                    0.0025                   -0.00836731620316921
0.4525                    0.0025                   -0.008552655806737449
0.4575                    0.0025                   -0.008722348120674225
0.4625                    0.0025                   -0.008881199847398758
0.4675                    0.0025                   -0.009040003077984013
0.4725                    0.0025                   -0.009171845138161506
0.4775                    0.0025                   -0.0093034033073712
0.4825                    0.0025                   -0.009420009267391194
0.4875                    0.0025                   -0.009513865796196034
0.4925                    0.0025                   -0.009607599658309188
0.4975                    0.0025                   -0.009668191911205819
0.5025                    0.0025                   -0.0097203912341168
0.5075                    0.0025                   -0.009762800752719276
0.5125                    0.0025                   -0.009766599778618528
0.5175                    0.0025                   -0.009770397007516815
0.5225                    0.0025                   -0.009745598671544063
0.5275                    0.0025                   -0.009702012695736261
0.5325                    0.0025                   -0.00965806694277016
0.5375                    0.0025                   -0.009565281342465589
0.5425                    0.0025                   -0.009472328102987388
0.5475                    0.0025                   -0.009359599000593957
0.5525                    0.0025                   -0.009218296528581561
0.5575                    0.0025                   -0.009076705426485171
0.5625                    0.0025                   -0.008890544495184546
0.5675                    0.0025                   -0.008693838874567516
0.5725                    0.0025                   -0.00848838448068411
0.5775                    0.0025                   -0.008251836568425661
0.5825                    0.0025                   -0.008015437210540464
0.5875                    0.0025                   -0.007750284942079959
0.5925                    0.0025                   -0.007467290854183193
0.5975                    0.0025                   -0.0071835874509570356
0.6025                    0.0025                   -0.006858728422571
0.6075                    0.0025                   -0.006532038170435797
0.6125                    0.0025                   -0.006198942704065375
0.6175                    0.0025                   -0.005858687470488287
0.6225                    0.0025                   -0.005517890179361567
0.6275                    0.0025                   -0.005144534168149003
0.6325                    0.0025                   -0.004765665370106528
0.6375                    0.0025                   -0.004386729767270511
0.6425                    0.0025                   -0.0040032387758516565
0.6475                    0.0025                   -0.003619832745343358
0.6525                    0.0025                   -0.0032355393011416047
0.6575                    0.0025                   -0.002850434583386239
0.6625                    0.0025                   -0.002465403989535989
0.6675                    0.0025                   -0.0020915156908581484
0.6725                    0.0025                   -0.0017173563948777318
0.6775                    0.0025                   -0.0013478330399476811
0.6825                    0.0025                   -9.848671534665372E-4
0.6875                    0.0025                   -6.222878560219686E-4
0.6925                    0.0025                   -2.816003010011195E-4
0.6975                    0.0025                   5.433949040052814E-5
0.7025                    0.0025                   3.796255867375138E-4
0.7075                    0.0025                   6.731042629328377E-4
0.7125                    0.0025                   9.66468118756549E-4
0.7175                    0.0025                   0.0012384609278305162
0.7225                    0.0025                   0.001498737417742298
0.7275                    0.0025                   0.0017570998800137913
0.7325                    0.0025                   0.0019767004889025687
0.7375                    0.0025                   0.002196001893897892
0.7425                    0.0025                   0.0023919353571726257
0.7475                    0.0025                   0.0025595880444092985
0.7525                    0.0025                   0.0027270106689747772
0.7575                    0.0025                   0.0028540250659563927
0.7625                    0.0025                   0.00297427206048251
0.7675                    0.0025                   0.0030833387853335865
0.7725                    0.0025                   0.0031604427959913577
0.7775                    0.0025                   0.0032375992792162247
0.7825                    0.0025                   0.0032871846042395714
0.7875                    0.0025                   0.003322826209010999
0.7925                    0.0025                   0.0033554947476193663
0.7975                    0.0025                   0.003348969131530913
0.8025                    0.0025                   0.0033424447911479076
0.8075                    0.0025                   0.00331948063241828
0.8125                    0.0025                   0.0032784866421783024
0.8175                    0.0025                   0.0032375034959917174
0.8225                    0.0025                   0.003173261917490694
0.8275                    0.0025                   0.003106114210666257
0.8325                    0.0025                   0.0030318866159842767
0.8375                    0.0025                   0.0029406114785658632
0.8425                    0.0025                   0.0028497037383005148
0.8475                    0.0025                   0.00275014186063254
0.8525                    0.0025                   0.0026470173077023343
0.8575                    0.0025                   0.0025425475379229653
0.8625                    0.0025                   0.0024263732288358
0.8675                    0.0025                   0.0023095162099451404
0.8725                    0.0025                   0.002190794332374883
0.8775                    0.0025                   0.00207031250582422
0.8825                    0.0025                   0.0019490774993083928
0.8875                    0.0025                   0.0018260732531465923
0.8925                    0.0025                   0.001702779149259957
0.8975                    0.0025                   0.0015797112741794644
0.9025                    0.0025                   0.0014572960467943118
0.9075                    0.0025                   0.0013348356607752133
0.9125                    0.0025                   0.0012175745638601724
0.9175                    0.0025                   0.0011017324846604457
0.9225                    0.0025                   9.865110997633814E-4
0.9275                    0.0025                   8.72842630698594E-4
0.9325                    0.0025                   7.591018552471236E-4
0.9375                    0.0025                   6.525083192719816E-4
0.9425                    0.0025                   5.485774201474832E-4
0.9475                    0.0025                   4.464152524996401E-4
0.9525                    0.0025                   3.63560802042655E-4
0.9575                    0.0025                   2.7803183728477014E-4
0.9625                    0.0025                   2.0468921358825538E-4
0.9675                    0.0025                   1.3949179806303715E-4
0.9725                    0.0025                   7.203195903578693E-5
0.9775                    0.0025                   4.1470290748263824E-5
0.9825                    0.0025                   8.017626046697504E-6
0.9875                    0.0025                   -9.682464456873133E-6
0.9925                    0.0025                   -9.511745085952942E-6
0.9975                    0.0025                   -9.873798238054488E-6
0.0025                    0.0075                   -7.156158005937653E-8
0.0075                    0.0075                   2.4551773714360432E-5
0.0125                    0.0075                   5.008627477234752E-5
0.0175                    0.0075                   1.0041885243181775E-4
0.0225                    0.0075                   1.8800936372414E-4
0.0275                    0.0075                   2.708564391189786E-4
0.0325                    0.0075                   4.051424033733251E-4
0.0375                    0.0075                   5.14119638527862E-4
0.0425                    0.0075                   6.672495598772817E-4
0.0475                    0.0075                   7.883589957777899E-4
0.0525                    0.0075                   9.104016977275013E-4
0.0575                    0.0075                   0.0010640342491798917
0.0625                    0.0075                   0.0011711634400673574
0.0675                    0.0075                   0.0013167403335543465
0.0725                    0.0075                   0.0014119636150117095
0.0775                    0.0075                   0.001508081015935853
0.0825                    0.0075                   0.0016140362719747957
0.0875                    0.0075                   0.0016828646194419804
0.0925                    0.0075                   0.0017667238266737618
0.0975                    0.0075                   0.0018117923040102402
0.1025                    0.0075                   0.0018533018407320713
0.1075                    0.0075                   0.0018868924601667457
0.1125                    0.0075                   0.0019017209571691035
0.1175                    0.0075                   0.0019092337340910945
0.1225                    0.0075                   0.0019012726249052606
0.1275                    0.0075                   0.001892214110906648
0.1325                    0.0075                   0.0018537218158620212
0.1375                    0.0075                   0.0018193309076745714
0.1425                    0.0075                   0.001768839070796668
0.1475                    0.0075                   0.0016984909083113764
0.1525                    0.0075                   0.0016391715919296672
0.1575                    0.0075                   0.0015386915622885456
0.1625                    0.0075                   0.0014581038348146693
0.1675                    0.0075                   0.0013673750311942174
0.1725                    0.0075                   0.0012304125991211858
0.1775                    0.0075                   0.0011287587894312228
0.1825                    0.0075                   9.636510799800783E-4
0.1875                    0.0075                   8.252584153968502E-4
0.1925                    0.0075                   6.909880444427119E-4
0.1975                    0.0075                   4.731789395534914E-4
0.2025                    0.0075                   3.201657875219798E-4
0.2075                    0.0075                   1.0172231805029797E-4
0.2125                    0.0075                   -1.3281229600421192E-4
0.2175                    0.0075                   -3.2175822779496725E-4
0.2225                    0.0075                   -6.237062169072335E-4
0.2275                    0.0075                   -8.448126446381646E-4
0.2325                    0.0075                   -0.0010659190723690958
0.2375                    0.0075                   -0.0014239334238701747
0.2425                    0.0075                   -0.0016747232714500316
0.2475                    0.0075                   -0.0020339733083132873
0.2525                    0.0075                   -0.002360121366153791
0.2575                    0.0075                   -0.0026495771372619242
0.2625                    0.0075                   -0.0030999865789372817
0.2675                    0.0075                   -0.0034253700814521164
0.2725                    0.0075                   -0.0038258213853971652
0.2775                    0.0075                   -0.004259712373091897
0.2825                    0.0075                   -0.00462024713126998
0.2875                    0.0075                   -0.005186765347094089
0.2925                    0.0075                   -0.005591832174896302
0.2975                    0.0075                   -0.006034483612901375
0.3025                    0.0075                   -0.006693318118301278
0.3075                    0.0075                   -0.007164868657824935
0.3125                    0.0075                   -0.0078217746426606
0.3175                    0.0075                   -0.008329655299501078
0.3225                    0.0075                   -0.00880449314003659
0.3275                    0.0075                   -0.00953369218971897
0.3325                    0.0075                   -0.010043730084646506
0.3375                    0.0075                   -0.010642623115511589
0.3425                    0.0075                   -0.011346723937683526
0.3475                    0.0075                   -0.011895034448606748
0.3525                    0.0075                   -0.012708389397884375
0.3575                    0.0075                   -0.01327538612143539
0.3625                    0.0075                   -0.013842382844986402
0.3675                    0.0075                   -0.014653472684723879
0.3725                    0.0075                   -0.015224961884214912
0.3775                    0.0075                   -0.01604665078420983
0.3825                    0.0075                   -0.016653496048531842
0.3875                    0.0075                   -0.017251004959664737
0.3925                    0.0075                   -0.01809115922440496
0.3975                    0.0075                   -0.018676545489545313
0.4025                    0.0075                   -0.019377996916209526
0.4075                    0.0075                   -0.020068376633327025
0.4125                    0.0075                   -0.020640141488404908
0.4175                    0.0075                   -0.02142076845663123
0.4225                    0.0075                   -0.021946420903592515
0.4275                    0.0075                   -0.02251098953378322
0.4325                    0.0075                   -0.023223612326032816
0.4375                    0.0075                   -0.023747649189904713
0.4425                    0.0075                   -0.02443783561377093
0.4475                    0.0075                   -0.024879019040636885
0.4525                    0.0075                   -0.025320202467502845
0.4575                    0.0075                   -0.025875457347448845
0.4625                    0.0075                   -0.026249638637497595
0.4675                    0.0075                   -0.02669779648876027
0.4725                    0.0075                   -0.027060250441586338
0.4775                    0.0075                   -0.027366390945951995
0.4825                    0.0075                   -0.027726939637321233
0.4875                    0.0075                   -0.027941788049721833
0.4925                    0.0075                   -0.02816448525635177
0.4975                    0.0075                   -0.028335104234102963
0.5025                    0.0075                   -0.028445240059294045
0.5075                    0.0075                   -0.028502659748509823
0.5125                    0.0075                   -0.028497451795251802
0.5175                    0.0075                   -0.02849224384199378
0.5225                    0.0075                   -0.028365371393494293
0.5275                    0.0075                   -0.028242322976204354
0.5325                    0.0075                   -0.028072869331367437
0.5375                    0.0075                   -0.0278074892442629
0.5425                    0.0075                   -0.027570657419484865
0.5475                    0.0075                   -0.02714518400543582
0.5525                    0.0075                   -0.026783695476588654
0.5575                    0.0075                   -0.026398756667892355
0.5625                    0.0075                   -0.025750595539108738
0.5675                    0.0075                   -0.025265890273975942
0.5725                    0.0075                   -0.024573685978206094
0.5775                    0.0075                   -0.023993998630218536
0.5825                    0.0075                   -0.02341431128223098
0.5875                    0.0075                   -0.022437366474792414
0.5925                    0.0075                   -0.021746688914575006
0.5975                    0.0075                   -0.020874570900671748
0.6025                    0.0075                   -0.019943611759683934
0.6075                    0.0075                   -0.019150301823552263
0.6125                    0.0075                   -0.017981642867836614
0.6175                    0.0075                   -0.017173271789992256
0.6225                    0.0075                   -0.016308612741450356
0.6275                    0.0075                   -0.015110050844657354
0.6325                    0.0075                   -0.014190728433671555
0.6375                    0.0075                   -0.012914311125482964
0.6425                    0.0075                   -0.011947415064328044
0.6475                    0.0075                   -0.011032246385422767
0.6525                    0.0075                   -0.009699179186837723
0.6575                    0.0075                   -0.008770433479186641
0.6625                    0.0075                   -0.007645631522384156
0.6675                    0.0075                   -0.006518151483823575
0.6725                    0.0075                   -0.005611359337322665
0.6775                    0.0075                   -0.004358789118640994
0.6825                    0.0075                   -0.0035009246935780725
0.6875                    0.0075                   -0.0025887928150109766
0.6925                    0.0075                   -0.0015105025769599793
0.6975                    0.0075                   -6.894513325748723E-4
0.7025                    0.0075                   4.5106567550502275E-4
0.7075                    0.0075                   0.0011725659269924346
0.7125                    0.0075                   0.0018940661784798464
0.7175                    0.0075                   0.002918975735049351
0.7225                    0.0075                   0.0035504781122605742
0.7275                    0.0075                   0.0042955275807197634
0.7325                    0.0075                   0.004982250757584739
0.7375                    0.0075                   0.005521606499290291
0.7425                    0.0075                   0.006217727229982418
0.7475                    0.0075                   0.006639495760706961
0.7525                    0.0075                   0.0070811465847706746
0.7575                    0.0075                   0.00755957591165201
0.7625                    0.0075                   0.007868164949318638
0.7675                    0.0075                   0.008261388112527907
0.7725                    0.0075                   0.008476828058780762
0.7775                    0.0075                   0.008678539662733624
0.7825                    0.0075                   0.00890526638549231
0.7875                    0.0075                   0.009007739135930452
0.7925                    0.0075                   0.009115105125089132
0.7975                    0.0075                   0.009147207755932788
0.8025                    0.0075                   0.00914960510732291
0.8075                    0.0075                   0.009115629762262835
0.8125                    0.0075                   0.009032332217504055
0.8175                    0.0075                   0.008937414522307195
0.8225                    0.0075                   0.008767717087991964
0.8275                    0.0075                   0.008618983033385472
0.8325                    0.0075                   0.008402747454305207
0.8375                    0.0075                   0.008194748247135888
0.8425                    0.0075                   0.00798837460066119
0.8475                    0.0075                   0.007676947142547337
0.8525                    0.0075                   0.007435504390544712
0.8575                    0.0075                   0.007122023071735042
0.8625                    0.0075                   0.006815073711505452
0.8675                    0.0075                   0.006534879343039477
0.8725                    0.0075                   0.006148889996777258
0.8775                    0.0075                   0.005862821779129485
0.8825                    0.0075                   0.005518221326709391
0.8875                    0.0075                   0.005161271043048517
0.8925                    0.0075                   0.00486500870760268
0.8975                    0.0075                   0.004444001888164672
0.9025                    0.0075                   0.004151686195265662
0.9075                    0.0075                   0.003827177246944177
0.9125                    0.0075                   0.0034563647651410824
0.9175                    0.0075                   0.003176279537629027
0.9225                    0.0075                   0.0027820258176892397
0.9275                    0.0075                   0.0025079722249040396
0.9325                    0.0075                   0.0022167728597767057
0.9375                    0.0075                   0.0018717017031638294
0.9425                    0.0075                   0.001619737730603371
0.9475                    0.0075                   0.0012875421908185457
0.9525                    0.0075                   0.0010742569262522424
0.9575                    0.0075                   8.590244190286389E-4
0.9625                    0.0075                   6.089725116550336E-4
0.9675                    0.0075                   4.5248236268871384E-4
0.9725                    0.0075                   2.6184030626046366E-4
0.9775                    0.0075                   1.703574276824956E-4
0.9825                    0.0075                   8.054772569634293E-5
0.9875                    0.0075                   2.3629319879061323E-5
0.9925                    0.0075                   1.049717781973918E-5
0.9975                    0.0075                   -1.9048450767094773E-6
0.0025                    0.0125                   6.34594324246141E-6
0.0075                    0.0125                   4.106920908427879E-5
0.0125                    0.0125                   9.938326783965386E-5
0.0175                    0.0125                   2.0642518303247298E-4
0.0225                    0.0125                   3.081088322090418E-4
0.0275                    0.0125                   4.802963250308243E-4
0.0325                    0.0125                   6.481125821392973E-4
0.0375                    0.0125                   8.494427079108026E-4