% Model:              lid_driven_cavity.mph
% Version:            COMSOL 4.3.2.152
% Date:               Jun 11 2013, 21:52
% Dimension:          2
% Nodes:              3752
% Expressions:        1
% Description:        Surface
% x                       y                        Color
0.0049633124912636245     0.01705788062150611      6.01654076348377E-5
0.004779840330439488      0.004779840330439488     9.8663754259623E-6
0.011349549108845747      0.012656748826268193     1.136943378337677E-4
0.01762990032270538       0.00566073446199066      7.41164983077989E-5
0.00545012015983648       0.02964814287608315      2.46752724413644E-4
0.011652142277197108      0.02092734989310048      3.067110162211021E-4
0.030102050695035933      0.006185819775824549     2.914208486213054E-4
0.021214250909307193      0.013413441986401858     3.6820819727471053E-4
0.005820932232226413      0.04218479323852053      5.292891311296179E-4
0.011964295177194339      0.03162785951953271      6.50394157185777E-4
0.02104188764640587       0.024897835265496385     8.426942628582463E-4
0.042157371294335395      0.005956237294812317     5.388749415810407E-4
0.03336129530758038       0.011612676122594088     6.835709529416926E-4
0.031088054964295165      0.02027442247207143      0.0010842836828035523
0.054498575005867834      0.006005184768891144     8.197118130627987E-4
0.04522404291800961       0.011326365109352638     0.0010950721755524407
0.006097848184651512      0.05471509290682331      8.558095895518791E-4
0.01135322219656679       0.04382811813893331      0.0010607421826223772
0.06693351611300695       0.006068879618533559     0.0010927162499892432
0.057521005696357076      0.011281736437373374     0.0015446743499012785
0.07944640505969741       0.006126171462254723     0.0013275452863731186
0.07002838490278503       0.011215588391331542     0.0019485128968826238
0.019774326048402915      0.04081824484808019      0.001554763285787674
0.0325408544638551        0.03153433714702582      0.00181269283723901
0.04121826281495562       0.020141257987894175     0.001577980970202802
0.05344177385310533       0.019990617156448672     0.0021981053313164882
0.006274818369415196      0.06725770198466949      0.001169269066548315
0.011480671492646638      0.05767310854303967      0.0016049520940247558
0.01963563660236738       0.05323723155005396      0.002198037179335304
0.006393679667577791      0.0798412969327053       0.0014457252133135896
0.011690959928023822      0.07047829021428674      0.002091692150091452
0.09203689615660916       0.006189547737546951     0.0015115735669338098
0.08245480047507762       0.011289339835814982     0.0022955686164298373
0.10470042392362905       0.006257896709599144     0.0016294675986525124
0.09523868942918202       0.011392636523390868     0.002553568221568231
0.06552762263454644       0.019465237341957434     0.002728026646104033
0.07596647600848569       0.01932150683864779      0.003135455642233449
0.1174298307208107        0.006301805159505715     0.0016759290145016126
0.10799810549208913       0.011522840089080905     0.0026958303752691627
0.13022166833982          0.006319389288430723     0.0016562436868178903
0.12107128826824926       0.011755953727757507     0.0027369445532110614
0.00644929009817931       0.09246812342713565      0.0016336785737695908
0.011866761327986768      0.08328595540204665      0.0024877495316690482
0.006469605377281227      0.10514584292719564      0.0017180544918051772
0.011861859789193284      0.09632187013367534      0.0027035469789732625
0.03263785132071769       0.046153013516193206     0.0026527250537481065
0.04646902652544851       0.0327214866903749       0.002681988611241397
0.05915083640813816       0.031289487344632015     0.003221580851924058
0.019789765107998368      0.06529621384735652      0.0028123437432616845
0.030870614749836798      0.05943487541275494      0.0032739516723643905
0.020856457391285065      0.07584306498686387      0.0033371333703579816
0.14306979172471773       0.0063274753199932055    0.0015695601078997135
0.1341428131795306        0.012050291718032794     0.002665149900620308
0.1559641164857044        0.006331809475096739     0.0014177614947717986
0.1472360027632669        0.012115176301290076     0.002420794507902803
0.08921161131350012       0.02013006815883814      0.0035850976376955407
0.10287826881540509       0.0200222074856334       0.003790570112751131
0.07148200541184092       0.03175718883138383      0.0038119102298964165
0.0844931700749008        0.03000702838377931      0.004077486978950648
0.11388535231892688       0.020033443828164976     0.0037954487002609737
0.12674069043488942       0.02041326627152924      0.00363346290932829
0.006474014837907327      0.11787419312608176      0.0016646499871121045
0.011782796722698368      0.10874568772671737      0.002709765449947447
0.006470151507464246      0.13064833240188878      0.0014698989744801696
0.011810412403982274      0.12203159834357663      0.0024859742954129985
0.020051104554709976      0.09112681136587603      0.0036620048789397885
0.020517032784410857      0.10240267712468437      0.003721204544439989
0.046580564312741324      0.05125157387496804      0.0034968917270974324
0.059223586618349026      0.044072528334541915     0.003677743115486218
0.07001500963357736       0.04878841175819624      0.003857004882175237
0.03163176017711925       0.07056459155726501      0.0037864284146628883
0.04439929113173127       0.06501400561683919      0.003767245764585785
0.03295145901059276       0.08342727739148299      0.00409617681837737
0.006461252255593323      0.14346238417799104      0.0010937027347814768
0.011791787477977718      0.1348023070762734       0.002015424013342888
0.006451508613580174      0.15631069786128649      5.342856466561387E-4
0.01205505234395986       0.1477558636703948       0.0012612346030762313
0.006444691237723232      0.16918784313636187      3.669886000155946E-4
0.011858614719945223      0.16043981035948673      6.258543169211224E-4
0.006440504720411296      0.1820886534252534       0.0013730468570723714
0.012124807460952364      0.1737089234449441       0.0018818828938958288
0.006439752856067852      0.19500870405047757      0.0026785707352260405
0.012178839844669187      0.18702939760107576      0.004000186321889239
0.006443028439193428      0.20794419272792722      0.004193960676330477
0.01231766235903203       0.20016089948906976      0.006558575662876126
0.006446933630209219      0.22089184950556445      0.006018390323160498
0.012223931629733602      0.21269479930356297      0.00935252305397351
0.0064530826456750175     0.23384909442171434      0.008079130749802516
0.012187433683271418      0.22574108413008195      0.012724985276067241
0.16889361393675514       0.0063396312351627895    0.001210851987080567
0.15980661456045284       0.011896437286112093     0.002060447709489479
0.18184772514266095       0.006349015997529747     9.501890634864053E-4
0.1729165561041155        0.01199423731065711      0.0016023192961913625
0.1535972072225606        0.020680136050991765     0.002618181782975503
0.1402688046737195        0.020788946856722296     0.003231376367371003
0.13494174169704154       0.031630693052531286     0.0031949868465876137
0.1082476568526713        0.030682434002980475     0.004199858119765271
0.09615873976465293       0.03308564893367332      0.004356540202972661
0.08242775146378253       0.04285773550957071      0.004074509031672295
0.12097053829086399       0.03272440311907025      0.003880332981527888
0.020052220104305796      0.11641841913876362      0.0033667198540460325
0.019633572194964307      0.1310643485644631       0.002602762914009228
0.03318462836889339       0.0987974764983884       0.004036910092062433
0.031753721677943075      0.11232623378505778      0.0036015379786729844
0.08052178276731868       0.058410425571828184     0.0030372820224514128
0.06039422655243413       0.06282579939539853      0.003628283783754919
0.04785128293091388       0.07756168887043513      0.0037940945761768857
0.0452308246842773        0.09162176918602238      0.0035057679108873247
0.020249646914787606      0.14329471738181052      0.0017723435805200784
0.020500158753688245      0.1556309819615506       0.0017146526268855408
0.19481765119725064       0.0063594521116220135    6.063786839965906E-4
0.18607946366437975       0.011962135061615054     0.001025653933214585
0.20779676328586846       0.006370241050571809     2.2776114351743932E-4
0.1990800551562202        0.012000049092892083     4.352990658499152E-4
0.004797572368141207      0.9952024276318587       0.26832788676226255
0.005730976181702598      0.9823124880028594       0.20302332245118343
0.012749262621444775      0.9887244603629457       0.2359150939840715
0.017009630790460386      0.9950955150144754       0.2914522703974854
0.006458404493906979      0.24681375304624711      0.0103592263900459
0.012524740328479873      0.23930368785505693      0.017065641660405168
0.0064536714117175474     0.25978406159672895      0.012788407116816166
0.012296947524385763      0.2519624374751053       0.02082119020692656
0.02066441832301231       0.16937686389426546      0.003656203301935855
0.021104593549720392      0.17971009453927364      0.006246699724051054
0.020659918975209645      0.1921824553198144       0.009390311390170547
0.02119940784811          0.20914480271879923      0.015287995839593714
0.020930815809454353      0.2324156953077959       0.02452675946758222
0.02129749261614628       0.22059698010818907      0.019873778721982274
0.1672775490507016        0.020602425802154718     0.001852397880220364
0.18140222458225919       0.02062773279388244      0.0010340125363671921
0.16056134894475882       0.031325989593597746     0.0017699969506435626
0.14767296844928307       0.03369877331731789      0.0023363413274529415
0.13297727054452932       0.04473536987520537      0.0023277695662082963
0.10859790348322491       0.04537864477204258      0.003317359026883472
0.09487529669495176       0.04910899067365601      0.0034857557582204713
0.12020357407071947       0.050917157862887065     0.0022909099129838867
0.03161150093725961       0.12361212136911484      0.002974962590949299
0.030770608492871922      0.13744077167837176      0.002460651288122284
0.045189176477744245      0.1185896986974361       0.0029899662355442357
0.0491986822750985        0.10638891389375377      0.0027750149769447644
0.09151520257943319       0.06943152440526626      8.863464625752038E-4
0.07677758340556859       0.07124640128686267      0.0017657237473804668
0.06738090943889537       0.0808379168844581       0.0018268435015835022
0.05977293493108046       0.09169925717941664      0.0021175515407800467
0.031551078571449474      0.15029337717712135      0.003733674874746061
0.03269600792583366       0.16288262511145735      0.006921332209706734
0.04363698719419314       0.14510731795941487      0.006744869568423828
0.22078060876530736       0.006376213582902681     3.2054609071260936E-4
0.21340789577094607       0.013356929499210678     0.0011139759503556396
0.23376656435855503       0.006373642543109438     8.780282292113531E-4
0.22669031156473696       0.013204191132210734     0.002204951535597146
0.2055618692870925        0.021117297852167486     0.002474976264246105
0.19125694638834956       0.020740124488497096     0.0010440517841197423
0.006079614436354833      0.9699688240285613       0.10497359584626968
0.013140136330218594      0.9790987074434326       0.23734973895806813
0.021169668260620358      0.9876386735622313       0.15677714285223118
0.029656975900568816      0.9945367770875552       0.44091133174835206
0.005725192409624089      0.9579666157465456       0.06483054193019788
0.011250502378655108      0.966265566502898        0.13873885387734727
0.9828921617906111        0.00502422214056576      2.9650708747264913E-5
0.9952451212472018        0.004754878752798309     2.470328035124576E-5
0.9874883022797928        0.011223663478197098     7.774884060554995E-5
0.9944339593635725        0.017552233234374767     4.400043171525262E-5
0.006447282562759957      0.2727587569519178       0.015413307253070696
0.012260856225940694      0.26494215749682615      0.025176213537894728
0.006453375878559421      0.2857368101831782       0.018194949189605274
0.012346023944630753      0.27772565022283885      0.030019581653841294
0.020923046168403677      0.24598594589312553      0.03086717994506154
0.020910041289582605      0.2609476050129587       0.03831819838345372
0.034896225561523345      0.17771890719423405      0.01260152975997503
0.032418086977471526      0.18885590102100092      0.015424862617155576
0.03276910328691332       0.20216097806065436      0.021298664876522645
0.03463144238838091       0.21603647389042765      0.030174573087248257
0.03286015351813022       0.24097666909676574      0.043022998666535146
0.033148232039886025      0.22861023481092574      0.03572742580252674
0.24675330151001001       0.0063576357041943265    0.001519908320002125
0.24080152873477714       0.012307819241925953     0.00324135940415016
0.2597402644788612        0.006338829638363928     0.0022623407674509178
0.2544780405544381        0.012298497998478718     0.004701583147310738
0.2727272727123547        0.006333261479556974     0.003103477178119285
0.266172226419032         0.012344535294637485     0.00617240636327698
0.28571428569031293       0.006334979150964089     0.004040674981716599
0.27749186273500165       0.012477940376125455     0.00780785322124944
0.18694561718839436       0.03173156582393418      0.0037563283382288136
0.1742980752350737        0.03383364551171032      0.0025966205616235866
0.16173782976063142       0.04338522318674848      0.004087537166978763
0.1453330385171678        0.052597063876160845     0.00462894859021
0.1305659794336253        0.06292090256472543      0.005411571728345573
0.1078006642746311        0.06305785172489484      0.0018326661444257113
0.11918887287417287       0.06668630943136326      0.0044282116394738875
0.04664015312905436       0.1324607617031975       0.004700008807235613
0.05914888335038432       0.12062536139621191      0.005552483392081763
0.06724656399326821       0.10939055059590468      0.0047734108617917236
0.10052899611340109       0.07876157761036148      0.004110061180074691
0.08731132284093138       0.08634441013076208      0.003120757876967435
0.07594331917671925       0.0966302310703992       0.0034468259248211773
0.045459520492936896      0.1706863278411319       0.016229031839585774
0.04764517255807415       0.15737482696650237      0.012017584770116543
0.05923146047964458       0.14643354695511496      0.01389114397239391
0.22053776656645105       0.02107358428451928      0.004414128241130555
0.2326690163777432        0.021012365878853037     0.00633795886076493
0.21181596596144453       0.03191472277897057      0.008412279566232006
0.19824415534897039       0.03393027358468666      0.006430783214127593
0.005923422516181484      0.9455361510714837       0.042616810815718525
0.010894751431278268      0.9549171279192038       0.09583712687619796
0.019475320018145927      0.9695409774715789       0.19373082735019273
0.04228223611263408       0.9940031212414858       0.49810593311576684
0.032369783820355505      0.9876168711550837       0.11457862718302077
0.023839626389399602      0.9783481076389091       0.19642903824628902
0.019199466712547738      0.9586831691678827       0.14607701143571528
0.9702670680338958        0.005575894799342078     2.5003346262525276E-4
0.978892029672927         0.012147019703196623     3.398622852479952E-4
0.9939754743297184        0.029994413214610636     3.008854958961714E-4
0.9867210990901325        0.020485981850145996     3.7931511853321116E-4
0.006464536665151356      0.2987173227943931       0.021075925647844555
0.012198311281232067      0.2904717031241602       0.034474879336947976
0.006468934576387586      0.3116996290954505       0.023935117464961932
0.012262563924167998      0.30349495511559205      0.039620544727214484
0.02127366878107273       0.2727290760595679       0.045298100037632516
0.021156204326390114      0.28616157899530875      0.052645109481928014
0.03281677483145368       0.26804688310619135      0.061221846937649295
0.03194113392935682       0.253203453817988        0.049682576664667015
0.044275929819465695      0.19603653548829011      0.027483185696028607
0.049920799893366063      0.18475154795865353      0.025782691848672178
0.04602730536685184       0.22210795318448662      0.04519661494881394
0.05098935623771198       0.20841615424216353      0.04078581442048294
0.044081349535871936      0.24835509655823876      0.06193798291429574
0.04851885695768739       0.23561969278247258      0.057539714293132364
0.24651186968732827       0.021259015086158264     0.008917823510597443
0.25894280134574904       0.022292234782002037     0.012405487542669867
0.29870129866286665       0.00633770647936069      0.0050956482733636515
0.29044129680457254       0.012460651735152374     0.009774676358444789
0.3116883116268411        0.00634230294952975      0.006325110082933403
0.3044856705703061        0.01382351292737688      0.01374056470830058
0.27218500241100146       0.021803534712233064     0.015041273025615894
0.28537879858417725       0.022173484991649686     0.018936125075319363
0.32467532457737447       0.0063398904549698334    0.007554329185209363
0.3183364893591074        0.012991939395285864     0.015392343038663088
0.33766233750683433       0.00633134432599116      0.008866734113743384
0.3323334615789602        0.012287844133180358     0.017080182782237215
0.18526205592691028       0.04508000759589817      0.009642825216724478
0.17223326605400274       0.05145438732593146      0.009877975943253332
0.1407950742006226        0.07086532426290283      0.011545232393396889
0.1565233718699436        0.061365000168900556     0.011106224651199785
0.12654030385026022       0.07944304948968867      0.011432524821778105
0.11283542627234312       0.0829102314387801       0.008678381154047494
0.0660656026773254        0.1345854688036934       0.012583388855738108
0.07690810134003796       0.12372609870098983      0.01300849768780494
0.08230835638260875       0.11311633970164223      0.01083693934104163
0.10289070968448971       0.09487794986914842      0.010725929972415808
0.0925891318414316        0.10451210623252154      0.011154340618534493
0.0590856526786841        0.17235670423247534      0.025982534646208647
0.06618219111620244       0.16081202222168522      0.02478701010084818
0.07353377146615404       0.14845996584086288      0.023008677538548353
0.23807076405600713       0.030933839618557918     0.014239394857117258
0.2250390661810784        0.03391101651087429      0.012769181850642661
0.21047558680573542       0.04513226763806744      0.017103603247938293
0.19726257977744616       0.05098833125451099      0.017115452086885488
0.3506493504030873        0.006324813482595247     0.010279611883900863
0.3452280085578302        0.012172589316231573     0.01951242237785926
0.3636363632472764        0.0063216114220706       0.011745770964587827
0.35836986882458816       0.012248180265517192     0.022406419350748986
0.006104779013159134      0.9330546623990106       0.02849351573050648
0.011260586688663868      0.9421934388171059       0.06536937739536818
0.018994724468707407      0.949794606796445        0.11575308367687494
0.054826494590666616      0.9936566510924779       0.5364320747146919
0.04481969675344569       0.9882704850129447       0.20530520341661376
0.0295751341921551        0.9666251920656721       0.1884106007272103
0.04086178497347245       0.9793996927773022       0.1187664739356883
0.031089946682717168      0.9559196515792118       0.1609953858132245
0.06733171063882895       0.9935252404203581       0.5767083250382271
0.05782735083988908       0.9881802647006084       0.270311099552091
0.3766233760100406        0.00632243120881485      0.013231491612786228
0.37032711886798153       0.012373535227710376     0.025240000999872374
0.38961038864677944       0.006321139758781803     0.014780024614351525
0.38250254740561546       0.013544229081177079     0.03068963058225128
0.9942052397846738        0.04207071685383868      6.662152700545677E-4
0.9885766351933422        0.033603132405691995     8.771653324483652E-4
0.994042139434756         0.05447847546235003      0.0011883468388815869
0.9890290971639825        0.04517091378498965      0.0015256383369600826
0.9577439376278809        0.005949618466107303     6.654598403533861E-4
0.9683851754227991        0.011432224686025743     7.495677139277725E-4
0.9742192674207917        0.020045461413058314     0.0011224467596564955
0.9807567759443316        0.029323194982723406     0.0013315488467225468
0.9452425717409073        0.006191144436795302     0.0012132119269865605
0.9552112512466029        0.01153187625754853      0.0015452863123880918
0.9938490774685168        0.06696053242678014      0.0018291886861329753
0.9885894362698734        0.05787702604757132      0.0025342697663294626
0.9937491159863311        0.07947743630452848      0.002476583337170083
0.9885372096993384        0.07027907005779106      0.003584099023477408
0.006468847280839785      0.3246832646193221       0.026836696982127227
0.012433895167764095      0.31666767224914855      0.045285885866932975
0.00646585211465491       0.33766787340180116      0.02958970616505871
0.013641322924200361      0.3307824272030937       0.05492241375118468
0.0211445171910368        0.29777441864528253      0.05927448695225256
0.021216540419833545      0.3122892054838125       0.06797728576079709
0.032620430618915126      0.2796742971909172       0.06924511556408088
0.03251936308436708       0.29187111080555406      0.07818918382238198
0.044056143720273735      0.27472863244469337      0.0830434271922002
0.04684492350399929       0.26205360922043164      0.07640335217971116
0.05934839597563671       0.19840068912563338      0.042071583880562806
0.06688023415829125       0.18686833325512595      0.04126228263048232
0.06008651505857575       0.2235068903459722       0.06153605136717664
0.0693613160277095        0.21175066898815123      0.06250983843791895
0.05815072933228548       0.2502071728915691       0.08141822661421814
0.06591442328506526       0.23759102122767134      0.08043823080932572
0.251196669268824         0.03449759440563638      0.021391334718953884
0.26498971254499565       0.03224268712230321      0.0240401066525015
0.29828025445298584       0.02243315406860493      0.022792680219135514
0.3094663725154633        0.022375322936327668     0.026384295713611398
0.2911191286621114        0.03223580652848517      0.03409523330829767
0.27775174070552155       0.034941324807988484     0.03208571494804951
0.3376495082446384        0.021366241132764814     0.03399164061899935
0.3247706399678896        0.021205464511779393     0.029401013377388093
0.183022156424035         0.06252277913412128      0.020895878527547155
0.16775406178054925       0.0701839565894281       0.020691847566113475
0.1379071793715064        0.08894370207941638      0.021377217960509776
0.15253049157015597       0.07884263308499452      0.020753297989308597
0.1213295674166723        0.09831256565292613      0.0199207198415411
0.13685486771056707       0.10361707952640402      0.0318733929569237
0.08456264665053174       0.13770492618636954      0.023943541035707713
0.09634572356835396       0.12460694950450937      0.023179893510441776
0.10786237253962411       0.11076041294419839      0.02106991206182636
0.07546319208801992       0.17617815151718705      0.04160251831968586
0.08155650473153925       0.16446476539029764      0.03859100102355132
0.09177848871500151       0.15470348337713397      0.040000251677372846
0.23603964665876787       0.04361930615797706      0.02517324162842677
0.2236842852341135        0.05218261071471408      0.028753303190291356
0.20770609693437922       0.06151440702714745      0.03092733982301526
0.19231923568506742       0.07066320899020864      0.03239043084996059
0.3494132914056228        0.021286341207563963     0.03785687595861296
0.3622328824570206        0.021066654484884238     0.0418674638675093
0.00640535310681788       0.4025982379127224       0.040848436185059574
0.006427664411609867      0.389611623393955        0.03915193458620474
0.012247318524921917      0.3981928125858475       0.07218479843361279
0.006382738384664158      0.4155849783861341       0.04226195078724777
0.012476998612887395      0.4107956189122669       0.07639741331368032
0.0063648290625561285     0.42857180628078256      0.04353933521763214
0.012123196980705585      0.42411073983229464      0.07720558708523682
0.00636047851630568       0.44155869444434764      0.04448390219846579
0.012078013914189362      0.4370958578106062       0.07923642332090979
0.0063784485004680005     0.45454562371105334      0.045254314594432195
0.012129440356352144      0.44664541886934406      0.08069078028872445
0.006199243515761796      0.9205354129950454       0.019638330141644598
0.011320887490202011      0.929628275404278        0.04478846808181216
0.006259069317969027      0.9079504362291255       0.013905504243323574
0.01142031371938674       0.9171215667368648       0.031813160104248527
0.006308584061699779      0.8952930612912396       0.010186115310214936
0.011869321130104473      0.9040016537289789       0.023694833712753435
0.019192072805506073      0.9383321599075034       0.08558969639102622
0.030144268074348005      0.9433473055503523       0.12207525627172298
0.053062244684608406      0.9797048972708043       0.08726909993744648
0.04469335073101558       0.9679378832807031       0.1585818340447617
0.04106192014758313       0.9539103289758357       0.1545198427026505
0.0798673011435318        0.9935196899931477       0.6105876138126121
0.07054916395200708       0.9879729840991852       0.31731268226968945
0.06575983775866391       0.9791198408722993       0.08092466041796663
0.09247102446837618       0.9935387090895667       0.6375691494128312
0.08348977662381038       0.9880874751545577       0.36511069128928314
0.4025974010906588        0.006309257974005892     0.016269917933384746
0.39561854187106515       0.01344786211207346      0.03352360735240743
0.4155844132352837        0.00629885601581211      0.017725666645893427
0.40828098354558096       0.013314416861556738     0.03602556316227556
0.3747666211505852        0.021498549629710578     0.04717733195324322
0.388069237887241         0.021301856549971413     0.05146056308900975
0.981124237028568         0.04052466109562613      0.0022707983227878777
0.9810033596870046        0.0523862807119603       0.0035167970250358405
0.9618398021420689        0.020437014967419672     0.002217881250830335
0.9701680915572523        0.03184400606874906      0.0027709521717282433
0.9327447987949153        0.006268062282544115     0.0018583567497929578
0.9421712366140959        0.011666409269922668     0.0025753209308698455
0.9467460199976612        0.020240444755249328     0.003887780608070404
0.9201948972712436        0.006273102419962413     0.0025457230282009123
0.9295092221614971        0.011635616680466346     0.0036890897688941194
0.9796946074163417        0.06432758276510515      0.005227212732713844
0.9936971486378139        0.09205754135200135      0.0030889150656464182
0.988296767291794         0.0825703923512014       0.0046785922705957226
0.9796192038841862        0.07540289199835533      0.006664548788616356
0.9936550656418696        0.10471161076916377      0.0036377537446742264
0.9883639259241521        0.09542312378386518      0.005639950588499688
0.006459619044709651      0.35065318666291506      0.03230968627065279
0.01349228745131653       0.34431096459985944      0.059786677742173534
0.006453363766718527      0.36363900740993105      0.03478811261946551
0.01294035391822556       0.35849978423664947      0.06297958401394306
0.006444418524084023      0.37662518839057585      0.03706233027299365
0.012481214029778403      0.3720152962978163       0.06563754268675842
0.012331607474004245      0.38516925367859167      0.06899311279988617
0.021235358845636182      0.3227544097930704       0.07414635045727098
0.021751696684990673      0.3386103785553604       0.08478306555776981
0.03289744032862438       0.30578396209091857      0.08934785019495434
0.03339688848069331       0.3183908401166897       0.10011276319001615
0.04473329796042696       0.3002320908252074       0.10585315739234677
0.047270210639691154      0.2870577218747046       0.09849255742016709
0.057549354393715405      0.27662313922619136      0.10440677005459083
0.06372787461556116       0.26413019427753237      0.10174398851799073
0.07601014535275721       0.20199749218154767      0.061832371642339325
0.08232287454944272       0.1893314584020972       0.058175718544827414
0.0766177083186755        0.22598146761050963      0.08363927900699429
0.08625427497858638       0.2150759354956297       0.08570013609620457
0.07445311717834294       0.2527911843471867       0.10616634139665586
0.08209977920492456       0.2414014035857136       0.10580539783516404
0.24978276009712574       0.05187960659674898      0.04140790862150682
0.2629005250562884        0.044507284111384514     0.03832995871486126
0.3158467801821868        0.032321978983554656     0.045079622016638496
0.3034090448398607        0.036171660269277206     0.045671751020044775
0.28998232835289806       0.04511114595611773      0.05377235413283054
0.27590541053529266       0.05073665587944287      0.05475532779783552
0.34286791425760627       0.032375170936905076     0.05817465479313873
0.3296163595627182        0.034156435222030726     0.05510313867800226
0.17717878768302078       0.07872866042148799      0.032276128474294404
0.1650890115303787        0.08674033948471853      0.03319402382426039
0.15359566843981184       0.09775876453393915      0.03653095548441682
0.1264968556105621        0.11783283292132413      0.03681333368558393