% Model:              lid_driven_cavity.mph
% Version:            COMSOL 4.3.2.152
% Date:               Jun 9 2013, 19:17
% Dimension:          2
% Nodes:              40000
% Expressions:        1
% Description:        Velocity field, x component
% Length unit:        m
% x                       y                        v (m/s)
0.0025                    0.0025                   6.682299427088076E-6
0.0075                    0.0025                   -1.0775380943582936E-7
0.0125                    0.0025                   -5.561740760433829E-6
0.0175                    0.0025                   -9.51663601461152E-6
0.0225                    0.0025                   -1.1791113910525218E-5
0.0275                    0.0025                   -1.3907951988017931E-5
0.0325                    0.0025                   -1.5188045720252748E-5
0.0375                    0.0025                   -1.6484212898807426E-5
0.0425                    0.0025                   -1.711688664712471E-5
0.0475                    0.0025                   -1.6864180163100787E-5
0.0525                    0.0025                   -1.6613130664390866E-5
0.0575                    0.0025                   -1.6100521752303117E-5
0.0625                    0.0025                   -1.5562438903687714E-5
0.0675                    0.0025                   -1.4822160644934637E-5
0.0725                    0.0025                   -1.3702315550490612E-5
0.0775                    0.0025                   -1.2590795997695436E-5
0.0825                    0.0025                   -1.1203596358049912E-5
0.0875                    0.0025                   -9.75293615228938E-6
0.0925                    0.0025                   -8.275436398703723E-6
0.0975                    0.0025                   -6.679673003031744E-6
0.1025                    0.0025                   -5.0976312038062414E-6
0.1075                    0.0025                   -3.6749976253261582E-6
0.1125                    0.0025                   -2.3370769365080413E-6
0.1175                    0.0025                   -1.008121726907138E-6
0.1225                    0.0025                   2.967291601660759E-7
0.1275                    0.0025                   1.598748968255226E-6
0.1325                    0.0025                   2.9256416268390315E-6
0.1375                    0.0025                   4.27871952669179E-6
0.1425                    0.0025                   5.630454582322629E-6
0.1475                    0.0025                   7.063140833466435E-6
0.1525                    0.0025                   8.50300136243344E-6
0.1575                    0.0025                   9.678100281041147E-6
0.1625                    0.0025                   1.0295903394377628E-5
0.1675                    0.0025                   1.0913117448267539E-5
0.1725                    0.0025                   1.2428645410888352E-5
0.1775                    0.0025                   1.4276697449189917E-5
0.1825                    0.0025                   1.6048917804639363E-5
0.1875                    0.0025                   1.734299235782111E-5
0.1925                    0.0025                   1.86354295418978E-5
0.1975                    0.0025                   1.9869273818344086E-5
0.2025                    0.0025                   2.105263555179257E-5
0.2075                    0.0025                   2.2234453255729177E-5
0.2125                    0.0025                   2.4263924497572004E-5
0.2175                    0.0025                   2.6344943269088917E-5
0.2225                    0.0025                   2.828984391136836E-5
0.2275                    0.0025                   2.997794658989856E-5
0.2325                    0.0025                   3.166657361849152E-5
0.2375                    0.0025                   3.327004645888885E-5
0.2425                    0.0025                   3.4847189156545225E-5
0.2475                    0.0025                   3.6514825203236706E-5
0.2525                    0.0025                   3.8684622395473766E-5
0.2575                    0.0025                   4.085937383695061E-5
0.2625                    0.0025                   4.286194873130933E-5
0.2675                    0.0025                   4.472281330550111E-5
0.2725                    0.0025                   4.658493762610737E-5
0.2775                    0.0025                   4.8526107691265914E-5
0.2825                    0.0025                   5.0470613608482984E-5
0.2875                    0.0025                   5.314927597398307E-5
0.2925                    0.0025                   5.7149120442887764E-5
0.2975                    0.0025                   6.114763948290878E-5
0.3025                    0.0025                   6.329098475220952E-5
0.3075                    0.0025                   6.484714634036803E-5
0.3125                    0.0025                   6.62454658344361E-5
0.3175                    0.0025                   6.683353751391627E-5
0.3225                    0.0025                   6.742178149046944E-5
0.3275                    0.0025                   6.91839111627562E-5
0.3325                    0.0025                   7.185213952348283E-5
0.3375                    0.0025                   7.452314107599427E-5
0.3425                    0.0025                   7.60938626374148E-5
0.3475                    0.0025                   7.762881333676131E-5
0.3525                    0.0025                   7.88921641414687E-5
0.3575                    0.0025                   7.969183974026613E-5
0.3625                    0.0025                   8.049182721873263E-5
0.3675                    0.0025                   8.146314186780864E-5
0.3725                    0.0025                   8.248470012480098E-5
0.3775                    0.0025                   8.340246928584206E-5
0.3825                    0.0025                   8.383252289482914E-5
0.3875                    0.0025                   8.426264415589221E-5
0.3925                    0.0025                   8.4359131345932E-5
0.3975                    0.0025                   8.421174984437166E-5
0.4025                    0.0025                   8.406415462979272E-5
0.4075                    0.0025                   8.19403282902963E-5
0.4125                    0.0025                   7.977451881142E-5
0.4175                    0.0025                   7.83069335144948E-5
0.4225                    0.0025                   7.796734024146363E-5
0.4275                    0.0025                   7.762796179242555E-5
0.4325                    0.0025                   7.554533303477724E-5
0.4375                    0.0025                   7.298954718469602E-5
0.4425                    0.0025                   7.01378541979081E-5
0.4475                    0.0025                   6.600145208509467E-5
0.4525                    0.0025                   6.186645534187284E-5
0.4575                    0.0025                   5.821140275825092E-5
0.4625                    0.0025                   5.488874026198858E-5
0.4675                    0.0025                   5.156709214754329E-5
0.4725                    0.0025                   4.7374254051337324E-5
0.4775                    0.0025                   4.317915902122015E-5
0.4825                    0.0025                   3.84060456260858E-5
0.4875                    0.0025                   3.275264857334077E-5
0.4925                    0.0025                   2.71066402821672E-5
0.4975                    0.0025                   2.1196630423712167E-5
0.5025                    0.0025                   1.5225698284967638E-5
0.5075                    0.0025                   9.063894656798897E-6
0.5125                    0.0025                   2.120093174772175E-6
0.5175                    0.0025                   -4.820423776351709E-6
0.5225                    0.0025                   -1.1106601636861395E-5
0.5275                    0.0025                   -1.696949977007903E-5
0.5325                    0.0025                   -2.284716346032845E-5
0.5375                    0.0025                   -3.015147652410654E-5
0.5425                    0.0025                   -3.74689865602805E-5
0.5475                    0.0025                   -4.4397402677901056E-5
0.5525                    0.0025                   -5.075775835515716E-5
0.5575                    0.0025                   -5.713110594944922E-5
0.5625                    0.0025                   -6.434102360447238E-5
0.5675                    0.0025                   -7.175246321865634E-5
0.5725                    0.0025                   -7.847136738444004E-5
0.5775                    0.0025                   -8.261632989811196E-5
0.5825                    0.0025                   -8.675868933529716E-5
0.5875                    0.0025                   -9.349841391499147E-5
0.5925                    0.0025                   -1.0184982212926176E-4
0.5975                    0.0025                   -1.1006672692024855E-4
0.6025                    0.0025                   -1.1167839174075425E-4
0.6075                    0.0025                   -1.1329914148314031E-4
0.6125                    0.0025                   -1.1616084069315062E-4
0.6175                    0.0025                   -1.2071628720603406E-4
0.6225                    0.0025                   -1.2527899095974895E-4
0.6275                    0.0025                   -1.2841520284018133E-4
0.6325                    0.0025                   -1.3123758981752352E-4
0.6375                    0.0025                   -1.335468329421791E-4
0.6425                    0.0025                   -1.3414597246701047E-4
0.6475                    0.0025                   -1.347449792548526E-4
0.6525                    0.0025                   -1.3427998270500798E-4
0.6575                    0.0025                   -1.3318987078339824E-4
0.6625                    0.0025                   -1.320909673858698E-4
0.6675                    0.0025                   -1.3075887106739903E-4
0.6725                    0.0025                   -1.2942580923460125E-4
0.6775                    0.0025                   -1.2770846772396018E-4
0.6825                    0.0025                   -1.254960531755228E-4
0.6875                    0.0025                   -1.2328599503368077E-4
0.6925                    0.0025                   -1.1856703932352315E-4
0.6975                    0.0025                   -1.1337362314876626E-4
0.7025                    0.0025                   -1.0828534391965847E-4
0.7075                    0.0025                   -1.0350177337931852E-4
0.7125                    0.0025                   -9.872007435943857E-5
0.7175                    0.0025                   -9.394079971907668E-5
0.7225                    0.0025                   -8.916172946555936E-5
0.7275                    0.0025                   -8.430028104586661E-5
0.7325                    0.0025                   -7.781614112321655E-5
0.7375                    0.0025                   -7.134083578404224E-5
0.7425                    0.0025                   -6.463370404485397E-5
0.7475                    0.0025                   -5.764355414827111E-5
0.7525                    0.0025                   -5.066299653788284E-5
0.7575                    0.0025                   -4.459176655600174E-5
0.7625                    0.0025                   -3.8671203098333076E-5
0.7675                    0.0025                   -3.281625200312381E-5
0.7725                    0.0025                   -2.7151841081499655E-5
0.7775                    0.0025                   -2.1483575286703448E-5
0.7825                    0.0025                   -1.580520422014265E-5
0.7875                    0.0025                   -1.0124713184338903E-5
0.7925                    0.0025                   -4.4577669607164005E-6
0.7975                    0.0025                   1.0550729960498095E-6
0.8025                    0.0025                   6.566835236954104E-6
0.8075                    0.0025                   1.1242458319247749E-5
0.8125                    0.0025                   1.5000885897179183E-5
0.8175                    0.0025                   1.8758319266225737E-5
0.8225                    0.0025                   2.2357407197629222E-5
0.8275                    0.0025                   2.5929118807667946E-5
0.8325                    0.0025                   2.9183765730967605E-5
0.8375                    0.0025                   3.16848839775112E-5
0.8425                    0.0025                   3.4175934819619694E-5
0.8475                    0.0025                   3.599823454590166E-5
0.8525                    0.0025                   3.7541040891464435E-5
0.8575                    0.0025                   3.907447815497317E-5
0.8625                    0.0025                   4.056230734282958E-5
0.8675                    0.0025                   4.2058879905881904E-5
0.8725                    0.0025                   4.267748685375251E-5
0.8775                    0.0025                   4.2524074344046186E-5
0.8825                    0.0025                   4.236970279153627E-5
0.8875                    0.0025                   4.280328220646466E-5
0.8925                    0.0025                   4.326661136777127E-5
0.8975                    0.0025                   4.324260958980645E-5
0.9025                    0.0025                   4.240780843938376E-5
0.9075                    0.0025                   4.15726993331587E-5
0.9125                    0.0025                   4.097747735452659E-5
0.9175                    0.0025                   4.04418897499026E-5
0.9225                    0.0025                   3.9927919990143595E-5
0.9275                    0.0025                   3.948236163935899E-5
0.9325                    0.0025                   3.903651986156366E-5
0.9375                    0.0025                   3.724754963696482E-5
0.9425                    0.0025                   3.478325631079763E-5
0.9475                    0.0025                   3.2253699245961146E-5
0.9525                    0.0025                   2.9352627318507713E-5
0.9575                    0.0025                   2.6357909747215978E-5
0.9625                    0.0025                   2.304857360827647E-5
0.9675                    0.0025                   1.940933773417421E-5
0.9725                    0.0025                   1.559415807420466E-5
0.9775                    0.0025                   1.2861863002542227E-5
0.9825                    0.0025                   9.609565602833538E-6
0.9875                    0.0025                   4.284791243951511E-6
0.9925                    0.0025                   -2.6639418377321813E-6
0.9975                    0.0025                   -1.0119459942318192E-5
0.0025                    0.0075                   -2.0849325602436402E-6
0.0075                    0.0075                   -2.538534437959228E-5
0.0125                    0.0075                   -3.932285942376295E-5
0.0175                    0.0075                   -6.607981425726229E-5
0.0225                    0.0075                   -8.377867262125983E-5
0.0275                    0.0075                   -9.211957619495608E-5
0.0325                    0.0075                   -1.106159015732474E-4
0.0375                    0.0075                   -1.1568140424663404E-4
0.0425                    0.0075                   -1.2041688246229346E-4
0.0475                    0.0075                   -1.195823044203982E-4
0.0525                    0.0075                   -1.1786781584948496E-4
0.0575                    0.0075                   -1.1437620571807528E-4
0.0625                    0.0075                   -1.1082976158045093E-4
0.0675                    0.0075                   -1.0131190685813848E-4
0.0725                    0.0075                   -9.541038599326026E-5
0.0775                    0.0075                   -8.854274241429937E-5
0.0825                    0.0075                   -7.588069516403583E-5
0.0875                    0.0075                   -6.887014889768052E-5
0.0925                    0.0075                   -5.331754445128385E-5
0.0975                    0.0075                   -4.4810552922528705E-5
0.1025                    0.0075                   -3.699573099445043E-5
0.1075                    0.0075                   -2.0785691526077007E-5
0.1125                    0.0075                   -1.4627886987015588E-5
0.1175                    0.0075                   -2.1689258320334224E-6
0.1225                    0.0075                   6.022149782323726E-6
0.1275                    0.0075                   1.215119934507325E-5
0.1325                    0.0075                   2.7315388597429407E-5
0.1375                    0.0075                   3.37654988934827E-5
0.1425                    0.0075                   4.430161541474285E-5
0.1475                    0.0075                   5.558745475297949E-5
0.1525                    0.0075                   6.238343095890257E-5
0.1575                    0.0075                   7.509503299560965E-5
0.1625                    0.0075                   7.836560160656071E-5
0.1675                    0.0075                   8.295056930763915E-5
0.1725                    0.0075                   9.495736864149448E-5
0.1775                    0.0075                   1.0352846888485293E-4
0.1825                    0.0075                   1.2292328323259942E-4
0.1875                    0.0075                   1.3015063362187718E-4
0.1925                    0.0075                   1.3633210916100475E-4
0.1975                    0.0075                   1.488322982453065E-4
0.2025                    0.0075                   1.5318782043114869E-4
0.2075                    0.0075                   1.667986719560626E-4
0.2125                    0.0075                   1.841171026426914E-4
0.2175                    0.0075                   1.9544092999536133E-4
0.2225                    0.0075                   2.1698901735547283E-4
0.2275                    0.0075                   2.2518407220993016E-4
0.2325                    0.0075                   2.3337912706438747E-4
0.2375                    0.0075                   2.4892265843663676E-4
0.2425                    0.0075                   2.558485298839583E-4
0.2475                    0.0075                   2.715854880419937E-4
0.2525                    0.0075                   2.860709578040764E-4
0.2575                    0.0075                   2.9782483262613387E-4
0.2625                    0.0075                   3.180646136853373E-4
0.2675                    0.0075                   3.2749512697055144E-4
0.2725                    0.0075                   3.4160063086886643E-4
0.2775                    0.0075                   3.561132137081018E-4
0.2825                    0.0075                   3.6556708734179126E-4
0.2875                    0.0075                   3.9831562227581795E-4
0.2925                    0.0075                   4.134546355611998E-4
0.2975                    0.0075                   4.3284454272977794E-4
0.3025                    0.0075                   4.695995605018039E-4
0.3075                    0.0075                   4.800438791365899E-4
0.3125                    0.0075                   4.876630037993172E-4
0.3175                    0.0075                   4.899407638900891E-4
0.3225                    0.0075                   4.921566227705412E-4
0.3275                    0.0075                   5.058354890127654E-4
0.3325                    0.0075                   5.181183647320381E-4
0.3375                    0.0075                   5.33952148482085E-4
0.3425                    0.0075                   5.494684985036488E-4
0.3475                    0.0075                   5.564790549893567E-4
0.3525                    0.0075                   5.639764931352555E-4
0.3575                    0.0075                   5.683304871232539E-4
0.3625                    0.0075                   5.726844811112522E-4
0.3675                    0.0075                   5.814682757540396E-4
0.3725                    0.0075                   5.855497688440031E-4
0.3775                    0.0075                   6.02543636512115E-4
0.3825                    0.0075                   6.055364735735105E-4
0.3875                    0.0075                   6.079988907812118E-4
0.3925                    0.0075                   6.072787909895599E-4
0.3975                    0.0075                   6.068814732376328E-4
0.4025                    0.0075                   6.006772107405365E-4
0.4075                    0.0075                   5.864836093446996E-4
0.4125                    0.0075                   5.759164327237623E-4
0.4175                    0.0075                   5.5099257646252E-4
0.4225                    0.0075                   5.48613447862853E-4
0.4275                    0.0075                   5.46447320824493E-4
0.4325                    0.0075                   5.392974195879032E-4
0.4375                    0.0075                   5.27177788456819E-4
0.4425                    0.0075                   4.781489705168563E-4
0.4475                    0.0075                   4.5681803124943176E-4
0.4525                    0.0075                   4.354870919820073E-4
0.4575                    0.0075                   3.974402927769474E-4
0.4625                    0.0075                   3.812610591594996E-4
0.4675                    0.0075                   3.481067809933256E-4
0.4725                    0.0075                   3.1830380595388754E-4
0.4775                    0.0075                   2.976593568357342E-4
0.4825                    0.0075                   2.4440064284405715E-4
0.4875                    0.0075                   2.179801214049022E-4
0.4925                    0.0075                   1.8219582906408015E-4
0.4975                    0.0075                   1.3174674626203263E-4
0.5025                    0.0075                   1.0661283214951602E-4
0.5075                    0.0075                   3.638058880921885E-5
0.5125                    0.0075                   2.352356751770181E-6
0.5175                    0.0075                   -3.1675875305678494E-5
0.5225                    0.0075                   -1.05817628901927E-4
0.5275                    0.0075                   -1.3628555272117416E-4
0.5325                    0.0075                   -1.8124835192624155E-4
0.5375                    0.0075                   -2.3216108836030908E-4
0.5425                    0.0075                   -2.6375030587857473E-4
0.5475                    0.0075                   -3.381750111192375E-4
0.5525                    0.0075                   -3.6756500420396317E-4
0.5575                    0.0075                   -4.004948536201618E-4
0.5625                    0.0075                   -4.681900230515708E-4
0.5675                    0.0075                   -5.059138120922117E-4
0.5725                    0.0075                   -5.635756298397448E-4
0.5775                    0.0075                   -5.800588619662278E-4
0.5825                    0.0075                   -5.965420940927111E-4
0.5875                    0.0075                   -6.783540505612431E-4
0.5925                    0.0075                   -7.167956334613644E-4
0.5975                    0.0075                   -7.698276711683751E-4
0.6025                    0.0075                   -8.011378994028187E-4
0.6075                    0.0075                   -8.127176043130522E-4
0.6125                    0.0075                   -8.251208698959319E-4
0.6175                    0.0075                   -8.460691086862938E-4
0.6225                    0.0075                   -8.732868517166179E-4
0.6275                    0.0075                   -9.245017756707635E-4
0.6325                    0.0075                   -9.357247556258528E-4
0.6375                    0.0075                   -9.432426843673347E-4
0.6425                    0.0075                   -9.451883014090069E-4
0.6475                    0.0075                   -9.470336903712885E-4
0.6525                    0.0075                   -9.431525377097921E-4
0.6575                    0.0075                   -9.398137134247705E-4
0.6625                    0.0075                   -9.313990307349341E-4
0.6675                    0.0075                   -9.201225230801969E-4
0.6725                    0.0075                   -9.13390003612418E-4
0.6775                    0.0075                   -8.915238082117056E-4
0.6825                    0.0075                   -8.841770635135452E-4
0.6875                    0.0075                   -8.757754410895495E-4
0.6925                    0.0075                   -8.515613960620512E-4
0.6975                    0.0075                   -8.250767187958808E-4
0.7025                    0.0075                   -7.692683592470464E-4
0.7075                    0.0075                   -7.426742772914499E-4
0.7125                    0.0075                   -7.160801953358534E-4
0.7175                    0.0075                   -6.528332980002562E-4
0.7225                    0.0075                   -6.340837190399148E-4
0.7275                    0.0075                   -5.958816540487062E-4
0.7325                    0.0075                   -5.483473852585152E-4
0.7375                    0.0075                   -5.184355333424818E-4
0.7425                    0.0075                   -4.487412508441972E-4
0.7475                    0.0075                   -4.16729296188292E-4
0.7525                    0.0075                   -3.794761947142548E-4
0.7575                    0.0075                   -3.1825322947006914E-4
0.7625                    0.0075                   -2.8986135966752773E-4
0.7675                    0.0075                   -2.313730016292261E-4
0.7725                    0.0075                   -2.0117451605128692E-4
0.7775                    0.0075                   -1.7409502266982075E-4
0.7825                    0.0075                   -1.1396757969337597E-4
0.7875                    0.0075                   -8.837783178239074E-5
0.7925                    0.0075                   -4.310610557272424E-5
0.7975                    0.0075                   -8.624108298082047E-7
0.8025                    0.0075                   2.4753574960243426E-5
0.8075                    0.0075                   7.275369372075743E-5
0.8125                    0.0075                   9.107604583341896E-5
0.8175                    0.0075                   1.1342532176039439E-4
0.8225                    0.0075                   1.4752152755928457E-4
0.8275                    0.0075                   1.6483621860724973E-4
0.8325                    0.0075                   1.986635911764013E-4
0.8375                    0.0075                   2.1049650881291128E-4
0.8425                    0.0075                   2.2144539996744536E-4
0.8475                    0.0075                   2.4030970334946465E-4
0.8525                    0.0075                   2.480138049447936E-4
0.8575                    0.0075                   2.6375570870555974E-4
0.8625                    0.0075                   2.7577532833315604E-4
0.8675                    0.0075                   2.84192903776677E-4
0.8725                    0.0075                   2.885756869367098E-4
0.8775                    0.0075                   2.891022836824739E-4
0.8825                    0.0075                   2.93136954060428E-4
0.8875                    0.0075                   2.9928423257229994E-4
0.8925                    0.0075                   3.02358264961737E-4
0.8975                    0.0075                   2.984306354367997E-4
0.9025                    0.0075                   2.947225827781291E-4
0.9075                    0.0075                   2.898459904055406E-4
0.9125                    0.0075                   2.8356024243731217E-4
0.9175                    0.0075                   2.8077530180929916E-4
0.9225                    0.0075                   2.759180777018736E-4
0.9275                    0.0075                   2.74076712291769E-4
0.9325                    0.0075                   2.7007003318870165E-4
0.9375                    0.0075                   2.542588240523371E-4
0.9425                    0.0075                   2.4560441446987136E-4
0.9475                    0.0075                   2.1949935029231624E-4
0.9525                    0.0075                   2.0840190316486016E-4
0.9575                    0.0075                   1.955473491911344E-4
0.9625                    0.0075                   1.6552713272852322E-4
0.9675                    0.0075                   1.5483348544743269E-4
0.9725                    0.0075                   1.150123520195382E-4
0.9775                    0.0075                   9.83434694630869E-5
0.9825                    0.0075                   7.193473136727747E-5
0.9875                    0.0075                   2.8110863905746636E-5
0.9925                    0.0075                   8.88733191955099E-6
0.9975                    0.0075                   -8.555939440244062E-6
0.0025                    0.0125                   -1.037945999440343E-5
0.0075                    0.0125                   -5.107335988992909E-5
0.0125                    0.0125                   -9.294758225800878E-5
0.0175                    0.0125                   -1.4902059856209825E-4
0.0225                    0.0125                   -1.895449368165237E-4
0.0275                    0.0125                   -2.2150183318955338E-4
0.0325                    0.0125                   -2.658309151601147E-4
0.0375                    0.0125                   -2.815589747431377E-4